 vasp.5.4.4.18Apr17-6-g9f103f2a35 (build May 22 2017 20:09:09) complex          
  
 executed on             LinuxIFC date 2019.03.15  06:45:40
 running on   36 total cores
 distrk:  each k-point on    9 cores,    4 groups
 distr:  one band on NCORES_PER_BAND=   1 cores,    9 groups


--------------------------------------------------------------------------------------------------------


 INCAR:
 POTCAR:    PAW_PBE Mg 13Apr2007                  
 POTCAR:    PAW_PBE O_s 07Sep2000                 

 ----------------------------------------------------------------------------- 
|                                                                             |
|           W    W    AA    RRRRR   N    N  II  N    N   GGGG   !!!           |
|           W    W   A  A   R    R  NN   N  II  NN   N  G    G  !!!           |
|           W    W  A    A  R    R  N N  N  II  N N  N  G       !!!           |
|           W WW W  AAAAAA  RRRRR   N  N N  II  N  N N  G  GGG   !            |
|           WW  WW  A    A  R   R   N   NN  II  N   NN  G    G                |
|           W    W  A    A  R    R  N    N  II  N    N   GGGG   !!!           |
|                                                                             |
|      For optimal performance we recommend to set                            |
|        NCORE= 4 - approx SQRT( number of cores)                             |
|      NCORE specifies how many cores store one orbital (NPAR=cpu/NCORE).     |
|      This setting can  greatly improve the performance of VASP for DFT.     |
|      The default,   NCORE=1            might be grossly inefficient         |
|      on modern multi-core architectures or massively parallel machines.     |
|      Do your own testing !!!!                                               |
|      Unfortunately you need to use the default for GW and RPA calculations. |
|      (for HF NCORE is supported but not extensively tested yet)             |
|                                                                             |
 ----------------------------------------------------------------------------- 


 ----------------------------------------------------------------------------- 
|                                                                             |
|           W    W    AA    RRRRR   N    N  II  N    N   GGGG   !!!           |
|           W    W   A  A   R    R  NN   N  II  NN   N  G    G  !!!           |
|           W    W  A    A  R    R  N N  N  II  N N  N  G       !!!           |
|           W WW W  AAAAAA  RRRRR   N  N N  II  N  N N  G  GGG   !            |
|           WW  WW  A    A  R   R   N   NN  II  N   NN  G    G                |
|           W    W  A    A  R    R  N    N  II  N    N   GGGG   !!!           |
|                                                                             |
|      You have enabled k-point parallelism (KPAR>1).                         |
|      This developmental code was originally  written by Paul Kent at ORNL,  |
|      and carefully double checked in Vienna.                                |
|      GW as well as linear response parallelism added by Martijn Marsman     |
|      and Georg Kresse.                                                      |
|      Carefully verify results versus KPAR=1.                                |
|      Report problems to Paul Kent and Vienna.                               |
|                                                                             |
 ----------------------------------------------------------------------------- 

 POTCAR:    PAW_PBE Mg 13Apr2007                  
   VRHFIN =Mg: s2p0                                                             
   LEXCH  = PE                                                                  
   EATOM  =    23.0369 eV,    1.6932 Ry                                         
                                                                                
   TITEL  = PAW_PBE Mg 13Apr2007                                                
   LULTRA =        F    use ultrasoft PP ?                                      
   IUNSCR =        1    unscreen: 0-lin 1-nonlin 2-no                           
   RPACOR =    1.500    partial core radius                                     
   POMASS =   24.305; ZVAL   =    2.000    mass and valenz                      
   RCORE  =    2.000    outmost cutoff radius                                   
   RWIGS  =    2.880; RWIGS  =    1.524    wigner-seitz radius (au A)           
   ENMAX  =  126.143; ENMIN  =   94.607 eV                                      
   RCLOC  =    1.506    cutoff for local pot                                    
   LCOR   =        T    correct aug charges                                     
   LPAW   =        T    paw PP                                                  
   EAUG   =  454.734                                                            
   DEXC   =    0.000                                                            
   RMAX   =    2.045    core radius for proj-oper                               
   RAUG   =    1.300    factor for augmentation sphere                          
   RDEP   =    2.025    radius for radial grids                                 
   RDEPT  =    1.942    core radius for aug-charge                              
                                                                                
   Atomic configuration                                                         
    6 entries                                                                   
     n  l   j            E        occ.                                          
     1  0  0.50     -1259.6230   2.0000                                         
     2  0  0.50       -79.8442   2.0000                                         
     2  1  1.50       -46.6121   6.0000                                         
     3  0  0.50        -4.7055   2.0000                                         
     3  1  0.50        -1.3660   0.0000                                         
     3  2  1.50        -1.3606   0.0000                                         
   Description                                                                  
     l       E           TYP  RCUT    TYP  RCUT                                 
     0     -4.7054661     23  2.000                                             
     0     27.2116520     23  2.000                                             
     1      1.3605826     23  2.000                                             
     1     27.2116520     23  2.000                                             
     2     -1.3605826     23  2.000                                             
  local pseudopotential read in
  partial core-charges read in
  partial kinetic energy density read in
  atomic valenz-charges read in
  non local Contribution for L=           0  read in
    real space projection operators read in
  non local Contribution for L=           0  read in
    real space projection operators read in
  non local Contribution for L=           1  read in
    real space projection operators read in
  non local Contribution for L=           1  read in
    real space projection operators read in
  non local Contribution for L=           2  read in
    real space projection operators read in
    PAW grid and wavefunctions read in
 
   number of l-projection  operators is LMAX  =           5
   number of lm-projection operators is LMMAX =          13
 
 POTCAR:    PAW_PBE O_s 07Sep2000                 
   VRHFIN =O: s2p4                                                              
   LEXCH  = PE                                                                  
   EATOM  =   432.3788 eV,   31.7789 Ry                                         
                                                                                
   TITEL  = PAW_PBE O_s 07Sep2000                                               
   LULTRA =        F    use ultrasoft PP ?                                      
   IUNSCR =        0    unscreen: 0-lin 1-nonlin 2-no                           
   RPACOR =    0.000    partial core radius                                     
   POMASS =   16.000; ZVAL   =    6.000    mass and valenz                      
   RCORE  =    1.850    outmost cutoff radius                                   
   RWIGS  =    1.700; RWIGS  =    0.900    wigner-seitz radius (au A)           
   ENMAX  =  282.853; ENMIN  =  212.140 eV                                      
   RCLOC  =    0.804    cutoff for local pot                                    
   LCOR   =        T    correct aug charges                                     
   LPAW   =        T    paw PP                                                  
   EAUG   =  412.352                                                            
   RMAX   =    1.897    core radius for proj-oper                               
   RAUG   =    1.300    factor for augmentation sphere                          
   RDEP   =    1.878    radius for radial grids                                 
   RDEPT  =    1.572    core radius for aug-charge                              
                                                                                
   Atomic configuration                                                         
    4 entries                                                                   
     n  l   j            E        occ.                                          
     1  0  0.50      -514.6923   2.0000                                         
     2  0  0.50       -23.9615   2.0000                                         
     2  1  0.50        -9.0305   4.0000                                         
     3  2  1.50        -1.3606   0.0000                                         
   Description                                                                  
     l       E           TYP  RCUT    TYP  RCUT                                 
     0    -23.9615315     23  1.500                                             
     0    -25.3221141     23  1.500                                             
     1     -9.0304908     23  1.850                                             
     1     -7.3935399     23  1.850                                             
  local pseudopotential read in
  atomic valenz-charges read in
  non local Contribution for L=           0  read in
    real space projection operators read in
  non local Contribution for L=           0  read in
    real space projection operators read in
  non local Contribution for L=           1  read in
    real space projection operators read in
  non local Contribution for L=           1  read in
    real space projection operators read in
    PAW grid and wavefunctions read in
 
   number of l-projection  operators is LMAX  =           4
   number of lm-projection operators is LMMAX =           8
 
 Optimization of the real space projectors (new method)

 maximal supplied QI-value         = 18.90
 optimisation between [QCUT,QGAM] = [  8.50, 17.20] = [ 20.25, 82.81] Ry 
 Optimized for a Real-space Cutoff    1.55 Angstroem

   l    n(q)    QCUT    max X(q) W(low)/X(q) W(high)/X(q)  e(spline) 
   0      8     8.504    28.265    0.19E-03    0.24E-03    0.96E-07
   0      8     8.504    10.429    0.15E-03    0.20E-03    0.77E-07
   1      7     8.504    13.073    0.16E-03    0.19E-03    0.23E-06
   1      7     8.504     9.625    0.15E-03    0.14E-03    0.20E-06
   2      7     8.504     4.652    0.91E-04    0.26E-03    0.12E-06
 Optimization of the real space projectors (new method)

 maximal supplied QI-value         = 20.41
 optimisation between [QCUT,QGAM] = [  8.57, 17.14] = [ 20.58, 82.30] Ry 
 Optimized for a Real-space Cutoff    1.64 Angstroem

   l    n(q)    QCUT    max X(q) W(low)/X(q) W(high)/X(q)  e(spline) 
   0      8     8.572   131.351    0.55E-04    0.19E-03    0.21E-06
   0      8     8.572   135.858    0.54E-04    0.19E-03    0.21E-06
   1      8     8.572    82.965    0.20E-03    0.13E-03    0.39E-06
   1      8     8.572    77.399    0.20E-03    0.14E-03    0.38E-06
  PAW_PBE Mg 13Apr2007                  :
 energy of atom  1       EATOM=  -23.0369
 kinetic energy error for atom=    0.0002 (will be added to EATOM!!)
  PAW_PBE O_s 07Sep2000                 :
 energy of atom  2       EATOM= -432.3788
 kinetic energy error for atom=    0.0698 (will be added to EATOM!!)
 
 
 POSCAR: Va_O1_1 Defect position 0.25 0.0 0.0    
  positions in direct lattice
  velocities in cartesian coordinates
 exchange correlation table for  LEXCH =        8
   RHO(1)=    0.500       N(1)  =     2000
   RHO(2)=  100.500       N(2)  =     4000
 


--------------------------------------------------------------------------------------------------------


 ion  position               nearest neighbor table
   1  0.989  0.001  1.000-  36 1.99  58 2.07  49 2.07  48 2.07  56 2.07  22 2.89  31 2.89  29 2.89
                            21 2.90   9 2.95  12 2.95  10 2.95  11 2.95  18 3.08  17 3.09  27 3.09
   2  0.998  0.001  0.500-  37 2.07  57 2.08  59 2.08  33 2.10  48 2.11  49 2.11  17 2.89  18 2.90
                            21 2.93  22 2.93  30 2.94  32 2.94  12 2.95  10 2.95   9 2.95  11 2.95
   3  1.000  0.501  0.999-  38 2.08  51 2.08  50 2.08  34 2.10  58 2.11  56 2.11  27 2.89  25 2.89
                            31 2.93  29 2.93  24 2.94  10 2.95  12 2.95  11 2.95   9 2.95  23 2.96
   4  1.000  0.500  0.499-  39 2.08  57 2.09  51 2.09  35 2.09  50 2.09  59 2.10  30 2.94  23 2.94
                            19 2.94  24 2.94  32 2.94  28 2.95  26 2.95  10 2.95  11 2.95  20 2.95
   5  0.512  0.000  0.001-  36 1.99  52 2.07  62 2.07  60 2.07  53 2.07  21 2.89  31 2.89  29 2.90
                            22 2.90  13 2.95  16 2.95  15 2.96  14 2.96  27 3.08  25 3.08  17 3.09
   6  0.502  0.000  0.500-  37 2.07  61 2.08  63 2.08  33 2.10  52 2.11  53 2.11  18 2.89  17 2.90
                            21 2.93  22 2.93  30 2.95  32 2.95  14 2.95  16 2.95  15 2.95  13 2.95
   7  0.502  0.501  0.000-  38 2.07  54 2.08  55 2.08  34 2.10  62 2.11  60 2.11  25 2.89  27 2.89
                            31 2.93  29 2.93  23 2.94  24 2.95  16 2.95  15 2.95  13 2.95  14 2.95
   8  0.501  0.500  0.500-  39 2.08  55 2.09  54 2.09  61 2.09  35 2.09  63 2.09  20 2.94  24 2.94
                            30 2.94  23 2.94  32 2.94  14 2.95  15 2.95  28 2.95  26 2.95  19 2.95
   9  0.000  0.250  0.249-  56 2.08  50 2.08  40 2.09  44 2.09  48 2.09  57 2.09  29 2.94   1 2.95
                            19 2.95  23 2.95   4 2.95  21 2.95   3 2.95   2 2.95  17 2.95  26 2.95
  10  0.001  0.251  0.750-  56 2.08  51 2.09  41 2.09  49 2.09  45 2.09  57 2.09  26 2.95   3 2.95
                             4 2.95  22 2.95  24 2.95  20 2.95  29 2.95   2 2.95  25 2.95  30 2.95
  11  0.000  0.750  0.250-  50 2.09  58 2.09  46 2.09  59 2.09  42 2.09  48 2.09  31 2.94   4 2.95
                             3 2.95  23 2.95  17 2.95  21 2.95  32 2.95  19 2.95   2 2.95  27 2.95
  12  0.001  0.751  0.750-  49 2.09  47 2.09  51 2.09  59 2.09  43 2.09  58 2.09  28 2.94   3 2.95
                            18 2.95  32 2.95   2 2.95  22 2.95  24 2.95  20 2.95   1 2.95  31 2.95
  13  0.500  0.250  0.250-  54 2.08  40 2.09  61 2.09  60 2.09  44 2.09  52 2.09  26 2.95   5 2.95
                            23 2.95  19 2.95  25 2.95  30 2.95  21 2.95   8 2.95   6 2.95   7 2.95
  14  0.501  0.250  0.750-  41 2.08  45 2.09  61 2.09  55 2.09  53 2.09  60 2.09   8 2.95  25 2.95
                             6 2.95  29 2.95  22 2.95  24 2.95  30 2.95  20 2.95   7 2.95  18 2.95
  15  0.500  0.750  0.251-  63 2.08  46 2.08  54 2.09  52 2.09  42 2.09  62 2.09  32 2.95  28 2.95
                             8 2.95  23 2.95   6 2.95   7 2.95  19 2.95  21 2.95  17 2.95  27 2.95
  16  0.501  0.751  0.750-  47 2.08  63 2.08  53 2.09  55 2.09  62 2.09  43 2.09  32 2.95  24 2.95
                            31 2.95   6 2.95   7 2.95  20 2.95  22 2.95  18 2.95   8 2.95  27 2.95
  17  0.250  1.000  0.262-  33 1.99  48 2.07  52 2.07  42 2.07  40 2.07   2 2.89  28 2.89  26 2.89
                             6 2.90  11 2.95  15 2.95   9 2.95  13 2.96  27 3.08   1 3.09   5 3.09
  18  0.251  0.000  0.739-  33 1.99  43 2.07  49 2.07  53 2.07  41 2.07   6 2.89  28 2.89  26 2.89
                             2 2.90  12 2.95  16 2.95  10 2.95  14 2.95   1 3.08  27 3.09  25 3.09
  19  0.250  0.500  0.252-  35 2.07  54 2.08  50 2.08  34 2.10  42 2.11  40 2.11  25 2.89  27 2.90
                            26 2.93  28 2.93   4 2.94   9 2.95   8 2.95  13 2.95  15 2.95  11 2.95
  20  0.251  0.501  0.748-  35 2.07  55 2.08  51 2.08  34 2.10  43 2.10  41 2.11  25 2.89  27 2.90
                            28 2.93  26 2.94   8 2.94  16 2.95   4 2.95  14 2.95  10 2.95  12 2.95
  21  0.750  0.000  0.252-  37 2.07  44 2.08  46 2.08  36 2.10  48 2.11  52 2.11   5 2.89   1 2.90
                             2 2.93   6 2.93  30 2.94  32 2.95  13 2.95   9 2.95  11 2.95  15 2.95
  22  0.751  0.001  0.749-  37 2.08  45 2.08  47 2.08  36 2.10  49 2.11  53 2.11   1 2.89   5 2.90
                             2 2.93   6 2.93  30 2.95  14 2.95  32 2.95  10 2.95  16 2.95  12 2.95
  23  0.750  0.500  0.251-  39 2.08  44 2.09  54 2.09  46 2.09  38 2.09  50 2.09  30 2.94   7 2.94
                             4 2.94  29 2.94   8 2.94  32 2.95  31 2.95  13 2.95  15 2.95   9 2.95
  24  0.751  0.501  0.749-  39 2.08  45 2.09  55 2.09  38 2.09  47 2.09  51 2.10  32 2.94   8 2.94
                             4 2.94  29 2.94   3 2.94  30 2.94  31 2.95   7 2.95  16 2.95  14 2.95
  25  0.251  0.262  0.999-  34 1.99  41 2.07  60 2.07  40 2.07  56 2.07   7 2.89  19 2.89   3 2.89
                            20 2.89  14 2.95  13 2.95  10 2.95   9 2.95   5 3.08  18 3.09   1 3.09
  26  0.250  0.251  0.500-  35 2.08  57 2.08  61 2.08  33 2.10  41 2.11  40 2.11  17 2.89  18 2.89
                            19 2.93  20 2.94  10 2.95   4 2.95  13 2.95   8 2.95   9 2.95  14 2.96
  27  0.251  0.739  0.000-  34 1.99  62 2.07  42 2.07  58 2.07  43 2.07   3 2.89   7 2.89  19 2.90
                            20 2.90  16 2.95  15 2.95  11 2.95  12 2.96  17 3.08   5 3.08  18 3.09
  28  0.250  0.749  0.500-  35 2.08  59 2.08  63 2.08  33 2.10  42 2.11  43 2.11  17 2.89  18 2.89
                            20 2.93  19 2.93  12 2.94   4 2.95  15 2.95   8 2.95  11 2.95  16 2.96
  29  0.751  0.252  1.000-  38 2.07  45 2.08  44 2.08  36 2.10  60 2.11  56 2.11   1 2.89   5 2.90
                             7 2.93   3 2.93  23 2.94  24 2.94   9 2.94  14 2.95  10 2.95  13 2.96
  30  0.751  0.251  0.500-  39 2.08  37 2.09  57 2.09  44 2.09  45 2.09  61 2.09  23 2.94   4 2.94
                             2 2.94  21 2.94   8 2.94  24 2.94   6 2.95  22 2.95  13 2.95  14 2.95
  31  0.751  0.749  0.000-  38 2.07  46 2.08  47 2.08  36 2.10  62 2.11  58 2.11   1 2.89   5 2.89
                             7 2.93   3 2.93  11 2.94  23 2.95  24 2.95  16 2.95  12 2.95  15 2.96
  32  0.750  0.750  0.500-  39 2.08  59 2.09  63 2.09  46 2.09  47 2.09  37 2.09  24 2.94   4 2.94
                             8 2.94   2 2.94  23 2.95   6 2.95  15 2.95  21 2.95  16 2.95  12 2.95
  33  0.250  0.000  0.500-  17 1.99  18 1.99  28 2.10  26 2.10   2 2.10   6 2.10
  34  0.251  0.501  1.000-  25 1.99  27 1.99   7 2.10   3 2.10  20 2.10  19 2.10
  35  0.250  0.500  0.500-  20 2.07  19 2.07  28 2.08  26 2.08   8 2.09   4 2.09
  36  0.751  0.001  0.000-   1 1.99   5 1.99  21 2.10  22 2.10  31 2.10  29 2.10
  37  0.750  0.001  0.500-   2 2.07   6 2.07  21 2.07  22 2.08  30 2.09  32 2.09
  38  0.751  0.501  1.000-  29 2.07  31 2.07   7 2.07   3 2.08  24 2.09  23 2.09
  39  0.750  0.500  0.500-  30 2.08  24 2.08   8 2.08   4 2.08  23 2.08  32 2.08
  40  0.250  0.248  0.247-  25 2.07  17 2.07  13 2.09   9 2.09  19 2.11  26 2.11
  41  0.251  0.248  0.752-  25 2.07  18 2.07  14 2.08  10 2.09  26 2.11  20 2.11
  42  0.250  0.752  0.248-  27 2.07  17 2.07  11 2.09  15 2.09  19 2.11  28 2.11
  43  0.251  0.753  0.753-  18 2.07  27 2.07  12 2.09  16 2.09  20 2.10  28 2.11
  44  0.750  0.250  0.249-  29 2.08  21 2.08   9 2.09  13 2.09  23 2.09  30 2.09
  45  0.751  0.250  0.751-  29 2.08  22 2.08  14 2.09  10 2.09  24 2.09  30 2.09
  46  0.750  0.751  0.249-  31 2.08  21 2.08  15 2.08  11 2.09  32 2.09  23 2.09
  47  0.751  0.751  0.751-  31 2.08  22 2.08  16 2.08  12 2.09  24 2.09  32 2.09
  48  0.003  0.000  0.247-  17 2.07   1 2.07   9 2.09  11 2.09  21 2.11   2 2.11
  49  0.003  0.001  0.752-   1 2.07  18 2.07  12 2.09  10 2.09  22 2.11   2 2.11
  50  0.001  0.500  0.248-  19 2.08   3 2.08   9 2.08  11 2.09  23 2.09   4 2.09
  51  0.002  0.501  0.750-   3 2.08  20 2.08  12 2.09  10 2.09   4 2.09  24 2.10
  52  0.497  0.000  0.248-   5 2.07  17 2.07  15 2.09  13 2.09   6 2.11  21 2.11
  53  0.498  0.000  0.753-  18 2.07   5 2.07  16 2.09  14 2.09   6 2.11  22 2.11
  54  0.499  0.500  0.250-  19 2.08   7 2.08  13 2.08  15 2.09   8 2.09  23 2.09
  55  0.500  0.501  0.751-  20 2.08   7 2.08  16 2.09  14 2.09   8 2.09  24 2.09
  56  0.003  0.248  0.999-   1 2.07  25 2.07  10 2.08   9 2.08   3 2.11  29 2.11
  57  0.001  0.249  0.499-   2 2.08  26 2.08   9 2.09  10 2.09  30 2.09   4 2.09
  58  0.003  0.753  1.000-   1 2.07  27 2.07  11 2.09  12 2.09   3 2.11  31 2.11
  59  0.001  0.751  0.500-  28 2.08   2 2.08  12 2.09  11 2.09  32 2.09   4 2.10
  60  0.498  0.248  0.000-  25 2.07   5 2.07  13 2.09  14 2.09  29 2.11   7 2.11
  61  0.500  0.249  0.500-   6 2.08  26 2.08  14 2.09  13 2.09   8 2.09  30 2.09
  62  0.498  0.753  0.001-   5 2.07  27 2.07  16 2.09  15 2.09   7 2.11  31 2.11
  63  0.500  0.751  0.501-   6 2.08  28 2.08  15 2.08  16 2.08  32 2.09   8 2.09
 
  LATTYP: Found a simple cubic cell.
 ALAT       =     8.3457008511
  
  Lattice vectors:
  
 A1 = (   8.3457008511,   0.0000000000,   0.0000000000)
 A2 = (   0.0000000000,   8.3457008511,   0.0000000000)
 A3 = (   0.0000000000,   0.0000000000,   8.3457008511)


Analysis of symmetry for initial positions (statically):
=====================================================================
 Subroutine PRICEL returns:
 Original cell was already a primitive cell.
 

 Routine SETGRP: Setting up the symmetry group for a 
 simple cubic supercell.


 Subroutine GETGRP returns: Found  1 space group operations
 (whereof  1 operations were pure point group operations)
 out of a pool of 48 trial point group operations.


The static configuration has the point symmetry C_1 .


Analysis of symmetry for dynamics (positions and initial velocities):
=====================================================================
 Subroutine PRICEL returns:
 Original cell was already a primitive cell.
 

 Routine SETGRP: Setting up the symmetry group for a 
 simple cubic supercell.


 Subroutine GETGRP returns: Found  1 space group operations
 (whereof  1 operations were pure point group operations)
 out of a pool of 48 trial point group operations.


The dynamic configuration has the point symmetry C_1 .


Analysis of structural, dynamic, and magnetic symmetry:
=====================================================================
 Subroutine PRICEL returns:
 Original cell was already a primitive cell.
 

 Routine SETGRP: Setting up the symmetry group for a 
 simple cubic supercell.


 Subroutine GETGRP returns: Found  1 space group operations
 (whereof  1 operations were pure point group operations)
 out of a pool of 48 trial point group operations.


The magnetic configuration has the point symmetry C_1 .


 Subroutine INISYM returns: Found  1 space group operations
 (whereof  1 operations are pure point group operations),
 and found     1 'primitive' translations

 
 
 KPOINTS: k-point mesh generated by kpt_generator.

Automatic generation of k-mesh.
Space group operators:
 irot       det(A)        alpha          n_x          n_y          n_z        tau_x        tau_y        tau_z
    1     1.000000     0.000000     1.000000     0.000000     0.000000     0.000000     0.000000     0.000000
 
 Subroutine IBZKPT returns following result:
 ===========================================
 
 Found      4 irreducible k-points:
 
 Following reciprocal coordinates:
            Coordinates               Weight
  0.250000  0.250000  0.250000      2.000000
 -0.250000  0.250000  0.250000      2.000000
  0.250000 -0.250000  0.250000      2.000000
 -0.250000 -0.250000  0.250000      2.000000
 
 Following cartesian coordinates:
            Coordinates               Weight
  0.029956  0.029956  0.029956      2.000000
 -0.029956  0.029956  0.029956      2.000000
  0.029956 -0.029956  0.029956      2.000000
 -0.029956 -0.029956  0.029956      2.000000
 
 
 Subroutine IBZKPT_HF returns following result:
 ==============================================
 
 Found      8 k-points in 1st BZ
 the following      8 k-points will be used (e.g. in the exchange kernel)
 Following reciprocal coordinates:   # in IRBZ
  0.250000  0.250000  0.250000    0.12500000   1 t-inv F
 -0.250000  0.250000  0.250000    0.12500000   2 t-inv F
  0.250000 -0.250000  0.250000    0.12500000   3 t-inv F
 -0.250000 -0.250000  0.250000    0.12500000   4 t-inv F
 -0.250000 -0.250000 -0.250000    0.12500000   1 t-inv T
  0.250000 -0.250000 -0.250000    0.12500000   2 t-inv T
 -0.250000  0.250000 -0.250000    0.12500000   3 t-inv T
  0.250000  0.250000 -0.250000    0.12500000   4 t-inv T


--------------------------------------------------------------------------------------------------------




 Dimension of arrays:
   k-points           NKPTS =      4   k-points in BZ     NKDIM =      8   number of bands    NBANDS=    189
   number of dos      NEDOS =    301   number of ions     NIONS =     63
   non local maximal  LDIM  =      5   non local SUM 2l+1 LMDIM =     13
   total plane-waves  NPLWV = 110592
   max r-space proj   IRMAX =   3576   max aug-charges    IRDMAX=   8281
   dimension x,y,z NGX =    48 NGY =   48 NGZ =   48
   dimension x,y,z NGXF=    96 NGYF=   96 NGZF=   96
   support grid    NGXF=    96 NGYF=   96 NGZF=   96
   ions per type =              32  31
   NGX,Y,Z   is equivalent  to a cutoff of   9.56,  9.56,  9.56 a.u.
   NGXF,Y,Z  is equivalent  to a cutoff of  19.12, 19.12, 19.12 a.u.

 SYSTEM =  unknown system                          
 POSCAR =  Va_O1_1 Defect position 0.25 0.0 0.0    

 Startparameter for this run:
   NWRITE =      2    write-flag & timer
   PREC   = a         normal or accurate (medium, high low for compatibility)
   ISTART =      1    job   : 0-new  1-cont  2-samecut
   ICHARG =      0    charge: 1-file 2-atom 10-const
   ISPIN  =      2    spin polarized calculation?
   LNONCOLLINEAR =      F non collinear calculations
   LSORBIT =      F    spin-orbit coupling
   INIWAV =      1    electr: 0-lowe 1-rand  2-diag
   LASPH  =      T    aspherical Exc in radial PAW
   METAGGA=      F    non-selfconsistent MetaGGA calc.

 Electronic Relaxation 1
   ENCUT  =  282.9 eV  20.79 Ry    4.56 a.u.  11.44 11.44 11.44*2*pi/ulx,y,z
   ENINI  =  282.9     initial cutoff
   ENAUG  =  454.7 eV  augmentation charge cutoff
   NELM   =    100;   NELMIN=  4; NELMDL=  0     # of ELM steps 
   EDIFF  = 0.1E-04   stopping-criterion for ELM
   LREAL  =      T    real-space projection
   NLSPLINE    = F    spline interpolate recip. space projectors
   LCOMPAT=      F    compatible to vasp.4.4
   GGA_COMPAT  = T    GGA compatible to vasp.4.4-vasp.4.6
   LMAXPAW     = -100 max onsite density
   LMAXMIX     =    2 max onsite mixed and CHGCAR
   VOSKOWN=      0    Vosko Wilk Nusair interpolation
   ROPT   =   -0.00025  -0.00025
 Ionic relaxation
   EDIFFG = -.5E-01   stopping-criterion for IOM
   NSW    =      1    number of steps for IOM
   NBLOCK =      1;   KBLOCK =      1    inner block; outer block 
   IBRION =      2    ionic relax: 0-MD 1-quasi-New 2-CG
   NFREE  =      1    steps in history (QN), initial steepest desc. (CG)
   ISIF   =      2    stress and relaxation
   IWAVPR =     11    prediction:  0-non 1-charg 2-wave 3-comb
   ISYM   =      3    0-nonsym 1-usesym 2-fastsym
   LCORR  =      T    Harris-Foulkes like correction to forces

   POTIM  = 0.5000    time-step for ionic-motion
   TEIN   =    0.0    initial temperature
   TEBEG  =    0.0;   TEEND  =   0.0 temperature during run
   SMASS  =  -3.00    Nose mass-parameter (am)
   estimated Nose-frequenzy (Omega)   =  0.10E-29 period in steps =****** mass=  -0.159E-26a.u.
   SCALEE = 1.0000    scale energy and forces
   NPACO  =    256;   APACO  = 16.0  distance and # of slots for P.C.
   PSTRESS=    0.0 pullay stress

  Mass of Ions in am
   POMASS =  24.30 16.00
  Ionic Valenz
   ZVAL   =   2.00  6.00
  Atomic Wigner-Seitz radii
   RWIGS  =  -1.00 -1.00
  virtual crystal weights 
   VCA    =   1.00  1.00
   NELECT =     248.0000    total number of electrons
   NUPDOWN=      -1.0000    fix difference up-down

 DOS related values:
   EMIN   =  10.00;   EMAX   =-10.00  energy-range for DOS
   EFERMI =   0.00
   ISMEAR =     0;   SIGMA  =   0.05  broadening in eV -4-tet -1-fermi 0-gaus

 Electronic relaxation 2 (details)
   IALGO  =     53    algorithm
   LDIAG  =      T    sub-space diagonalisation (order eigenvalues)
   LSUBROT=      F    optimize rotation matrix (better conditioning)
   TURBO    =      0    0=normal 1=particle mesh
   IRESTART =      0    0=no restart 2=restart with 2 vectors
   NREBOOT  =      0    no. of reboots
   NMIN     =      0    reboot dimension
   EREF     =   0.00    reference energy to select bands
   IMIX   =      4    mixing-type and parameters
     AMIX     =   0.40;   BMIX     =  1.00
     AMIX_MAG =   1.60;   BMIX_MAG =  1.00
     AMIN     =   0.10
     WC   =   100.;   INIMIX=   1;  MIXPRE=   1;  MAXMIX= -45

 Intra band minimization:
   WEIMIN = 0.0010     energy-eigenvalue tresh-hold
   EBREAK =  0.13E-07  absolut break condition
   DEPER  =   0.30     relativ break condition  

   TIME   =   0.20     timestep for ELM

  volume/ion in A,a.u.               =       9.23        62.27
  Fermi-wavevector in a.u.,A,eV,Ry     =   1.232431  2.328957 20.665698  1.518886
  Thomas-Fermi vector in A             =   2.367201
 
 Write flags
   LWAVE        =      T    write WAVECAR
   LDOWNSAMPLE  =      F    k-point downsampling of WAVECAR
   LCHARG       =      T    write CHGCAR
   LVTOT        =      F    write LOCPOT, total local potential
   LVHAR        =      F    write LOCPOT, Hartree potential only
   LELF         =      F    write electronic localiz. function (ELF)
   LORBIT       =     11    0 simple, 1 ext, 2 COOP (PROOUT), +10 PAW based schemes


 Dipole corrections
   LMONO  =      F    monopole corrections only (constant potential shift)
   LDIPOL =      F    correct potential (dipole corrections)
   IDIPOL =      0    1-x, 2-y, 3-z, 4-all directions 
   EPSILON=  1.0000000 bulk dielectric constant

 Exchange correlation treatment:
   GGA     =    --    GGA type
   LEXCH   =     8    internal setting for exchange type
   VOSKOWN=      0    Vosko Wilk Nusair interpolation
   EXXOEP  =     0    0=HF, 1=EXX-LHF (local Hartree Fock) 2=EXX OEP
   LHFCALC =     T    Hartree Fock is set to
   LSYMGRAD=     F    symmetrize gradient (conserves proper symmetry)
   PRECFOCK=fast      Normal, Fast or Accurate (Low or Medium for compatibility)
   LRHFCALC=     F    long range Hartree Fock
   LRSCOR  =     F    long range correlation only (use DFT for short range part)
   LTHOMAS =     F    Thomas Fermi screening in HF
   LMODELHF=     F    short range full HF, long range fraction AEXX
   ENCUT4O =  -1.0   cutoff for four orbital integrals eV
   LMAXFOCK=     4    L truncation for augmentation on plane wave grid
   LMAXFOCKAE=  -1    L truncation for all-electron charge restoration on plane wave grid
   NMAXFOCKAE=   1    number of basis functions for all-electron charge restoration
   LFOCKAEDFT=     F  apply the AE augmentation even for DFT
   NKREDX  =     1    reduce k-point grid by
   NKREDY  =     1    reduce k-point grid by
   NKREDZ  =     1    reduce k-point grid by
   SHIFTRED=     F    shift reduced grid of Gamma
   HFKIDENT=     F    idential grid for each k-point
   ODDONLY =     F    use only odd q-grid points
   EVENONLY=     F    use only even q-grid points
   HFALPHA =   -1.0000 decay constant for conv. correction
   MCALPHA =    0.0000 extent of test-charge in conv. correction in multipole expansion
   AEXX    =    0.4000 exact exchange contribution
   HFSCREEN=    0.2080 screening length (either q_TF or 0.3 A-1)
   HFSCREENC=   0.2080 screening length for correlation (either q_TF or 0.3 A-1)
   HFRCUT  =    0.0000 spherical cutoff for potential kernel
   ALDAX   =    0.6000 LDA exchange part
   AGGAX   =    0.6000 GGA exchange part
   ALDAC   =    1.0000 LDA correlation
   AGGAC   =    1.0000 GGA correlation
   ENCUTFOCK=  -1.0 apply spherical cutoff to Coloumb kernel
   NBANDSGWLOW=     1    first orbital included in HF term
   NBLOCK_FOCK=    64    blocking factor in FOCK_ACC
 Linear response parameters
   LEPSILON=     F    determine dielectric tensor
   LRPA    =     F    only Hartree local field effects (RPA)
   LNABLA  =     F    use nabla operator in PAW spheres
   LVEL    =     F    velocity operator in full k-point grid
   LINTERFAST=   F  fast interpolation
   KINTER  =     0    interpolate to denser k-point grid
   CSHIFT  =0.1000    complex shift for real part using Kramers Kronig
   OMEGAMAX=  -1.0    maximum frequency
   DEG_THRESHOLD= 0.2000000E-02 threshold for treating states as degnerate
   RTIME   =   -0.100 relaxation time in fs
  (WPLASMAI=    0.000 imaginary part of plasma frequency in eV, 0.658/RTIME)
   DFIELD  = 0.0000000 0.0000000 0.0000000 field for delta impulse in time
 
 Orbital magnetization related:
   ORBITALMAG=     F  switch on orbital magnetization
   LCHIMAG   =     F  perturbation theory with respect to B field
   DQ        =  0.001000  dq finite difference perturbation B field
   LLRAUG    =     F  two centre corrections for induced B field



--------------------------------------------------------------------------------------------------------


 conjugate gradient relaxation of ions
 charge density and potential will be updated during run
 spin polarized calculation
 Conjugate gradient for all bands (Freysoldt, et al. PRB 79, 241103 (2009))
 perform sub-space diagonalisation
    before iterative eigenvector-optimisation
 modified Broyden-mixing scheme, WC =      100.0
 initial mixing is a Kerker type mixing with AMIX =  0.4000 and BMIX =      1.0000
 Hartree-type preconditioning will be used
 using additional bands           65
 real space projection scheme for non local part
 use partial core corrections
 no Harris-corrections to forces 
 use gradient corrections 
 use of overlap-Matrix (Vanderbilt PP)
 Gauss-broadening in eV      SIGMA  =   0.05


--------------------------------------------------------------------------------------------------------


  energy-cutoff  :      282.85
  volume of cell :      581.28
      direct lattice vectors                 reciprocal lattice vectors
     8.345700851  0.000000000  0.000000000     0.119822172  0.000000000  0.000000000
     0.000000000  8.345700851  0.000000000     0.000000000  0.119822172  0.000000000
     0.000000000  0.000000000  8.345700851     0.000000000  0.000000000  0.119822172

  length of vectors
     8.345700851  8.345700851  8.345700851     0.119822172  0.119822172  0.119822172


 
 old parameters found on file WAVECAR:
  energy-cutoff  :      282.85
  volume of cell :      581.28
      direct lattice vectors                 reciprocal lattice vectors
     8.345700851  0.000000000  0.000000000     0.119822172  0.000000000  0.000000000
     0.000000000  8.345700851  0.000000000     0.000000000  0.119822172  0.000000000
     0.000000000  0.000000000  8.345700851     0.000000000  0.000000000  0.119822172

  length of vectors

 
 k-points in units of 2pi/SCALE and weight: k-point mesh generated by kpt_generator.
   0.02995554  0.02995554  0.02995554       0.250
  -0.02995554  0.02995554  0.02995554       0.250
   0.02995554 -0.02995554  0.02995554       0.250
  -0.02995554 -0.02995554  0.02995554       0.250
 
 k-points in reciprocal lattice and weights: k-point mesh generated by kpt_generator.
   0.25000000  0.25000000  0.25000000       0.250
  -0.25000000  0.25000000  0.25000000       0.250
   0.25000000 -0.25000000  0.25000000       0.250
  -0.25000000 -0.25000000  0.25000000       0.250
 
 position of ions in fractional coordinates (direct lattice) 
   0.98915070  0.00056407  0.99968341
   0.99846856  0.00056487  0.49957149
   0.99959259  0.50072072  0.99910213
   0.99957941  0.50013264  0.49939210
   0.51217183  0.00044170  0.00077304
   0.50200752  0.00040511  0.50049926
   0.50235709  0.50078374  0.00022233
   0.50115181  0.50015161  0.50038504
   0.00043701  0.25043333  0.24902680
   0.00097937  0.25073210  0.74968313
   0.00003906  0.75009919  0.24959384
   0.00078722  0.75065982  0.74960458
   0.50020933  0.25034260  0.25013620
   0.50084578  0.25047075  0.74998230
   0.50038044  0.75008511  0.25091127
   0.50117776  0.75057555  0.75032595
   0.25002149  0.99990067  0.26165820
   0.25073672  0.00020543  0.73855655
   0.25025045  0.50007530  0.25161290
   0.25111038  0.50075182  0.74786624
   0.75033787  0.00047561  0.25153252
   0.75093295  0.00081210  0.74887786
   0.75013296  0.50004036  0.25063648
   0.75074568  0.50056431  0.74908764
   0.25122119  0.26221942  0.99948900
   0.25028828  0.25143719  0.49969615
   0.25092467  0.73906289  0.00018785
   0.25017006  0.74872313  0.50004968
   0.75081443  0.25242880  0.99970992
   0.75058405  0.25092576  0.49970586
   0.75087320  0.74886587  0.00021729
   0.75044653  0.74968102  0.50010695
   0.25007578  0.00003453  0.50003983
   0.25099358  0.50058108  0.99972715
   0.25040755  0.50008180  0.49984846
   0.75082060  0.00061508  0.00034601
   0.75035327  0.00063298  0.50009460
   0.75080406  0.50058854  0.99980253
   0.75035296  0.50009190  0.49990601
   0.25033596  0.24760529  0.24696806
   0.25111382  0.24792750  0.75229647
   0.25020748  0.75240593  0.24770559
   0.25091105  0.75292124  0.75255036
   0.75037432  0.24971447  0.24888193
   0.75074133  0.24998431  0.75063046
   0.75014856  0.75084788  0.24933070
   0.75088067  0.75127603  0.75091885
   0.00267698  0.00031037  0.24716350
   0.00323563  0.00051471  0.75224470
   0.00098438  0.50024919  0.24845525
   0.00184539  0.50074005  0.75020191
   0.49744574  0.00017753  0.24801684
   0.49825810  0.00037752  0.75306454
   0.49936098  0.50009443  0.24980785
   0.50010361  0.50059049  0.75060763
   0.00348054  0.24806493  0.99926497
   0.00121476  0.24948621  0.49935503
   0.00334688  0.75314945  0.99975925
   0.00081587  0.75117171  0.49961292
   0.49845427  0.24794914  0.00009134
   0.49963166  0.24948363  0.50008339
   0.49839859  0.75307413  0.00056050
   0.49979456  0.75117241  0.50059687
 
 position of ions in cartesian coordinates  (Angst):
   8.25515583  0.00470754  8.34305867
   8.33291995  0.00471423  4.16927422
   8.34230073  4.17886537  8.33820750
   8.34219075  4.17395738  4.16777704
   4.27443288  0.00368634  0.00645157
   4.18960455  0.00338095  4.17701707
   4.19252199  4.17939126  0.00185552
   4.18246310  4.17411572  4.17606385
   0.00364717  2.09004165  2.07830317
   0.00817351  2.09253513  6.25663115
   0.00032594  6.26010344  2.08303553
   0.00656992  6.26478233  6.25597560
   4.17459746  2.08928442  2.08756189
   4.17990905  2.09035391  6.25912793
   4.17602546  6.25998590  2.09403036
   4.18267968  6.26407901  6.26199589
   2.08660458  8.34487191  2.18372108
   2.09257363  0.00171447  6.16377206
   2.08851543  4.17347882  2.09988598
   2.09569209  4.17912487  6.24146788
   6.26209537  0.00396928  2.09921518
   6.26706177  0.00677757  6.24991058
   6.26038532  4.17318726  2.09173710
   6.26549886  4.17756000  6.25166131
   2.09661694  2.18840484  8.34143623
   2.08883108  2.09841960  4.17031454
   2.09414225  6.16799782  0.00156776
   2.08784448  6.24861925  4.17326501
   6.26607263  2.10669525  8.34327996
   6.26414995  2.09415131  4.17039566
   6.26656314  6.24981057  0.00181345
   6.26300228  6.25661353  4.17374302
   2.08705766  0.00028815  4.17318287
   2.09471735  4.17769998  8.34342374
   2.08982650  4.17353310  4.17158573
   6.26612408  0.00513328  0.00288773
   6.26222394  0.00528267  4.17363993
   6.26598611  4.17776222  8.34405282
   6.26222137  4.17361738  4.17206605
   2.08922901  2.06643971  2.06112151
   2.09572081  2.06912877  6.27844129
   2.08815682  6.27935480  2.06727679
   2.09402859  6.28365540  6.28056015
   6.26239957  2.08404227  2.07709415
   6.26546254  2.08629424  6.26453729
   6.26051547  6.26635181  2.08083943
   6.26662547  6.26992501  6.26694405
   0.02234125  0.00259024  2.06275261
   0.02700361  0.00429560  6.27800919
   0.00821531  4.17493012  2.07353320
   0.01540104  4.17902668  6.26096072
   4.15153338  0.00148164  2.06987439
   4.15831303  0.00315063  6.28485138
   4.16751733  4.17363852  2.08482160
   4.17371511  4.17777845  6.26434673
   0.02904755  2.07027569  8.33956648
   0.01013798  2.08213726  4.16746766
   0.02793209  6.28555999  8.34369162
   0.00680900  6.26905436  4.16962001
   4.15995019  2.06930938  0.00076228
   4.16977638  2.08211578  4.17354636
   4.15948554  6.28493143  0.00467777
   4.17113591  6.26906021  4.17783171
 


--------------------------------------------------------------------------------------------------------


 k-point  1 :   0.2500 0.2500 0.2500  plane waves:    6274
 k-point  2 :  -0.2500 0.2500 0.2500  plane waves:    6274
 k-point  3 :   0.2500-0.2500 0.2500  plane waves:    6274
 k-point  4 :  -0.2500-0.2500 0.2500  plane waves:    6274

 maximum and minimum number of plane-waves per node :      6274     6274

 maximum number of plane-waves:      6274
 maximum index in each direction: 
   IXMAX=   11   IYMAX=   11   IZMAX=   11
   IXMIN=  -11   IYMIN=  -11   IZMIN=  -11


 serial   3D FFT for wavefunctions
 parallel 3D FFT for charge:
    minimum data exchange during FFTs selected (reduces bandwidth)


 FFT grid for exact exchange (Hartree Fock) 
  NGX = 24; NGY = 24; NGZ = 24

 
 Radii for the augmentation spheres in the non-local exchange
 for species   1 augmentation radius   1.446 (default was   1.071)
       energy cutoff for augmentation   1131.4
 for species   2 augmentation radius   1.180 (default was   0.874)
       energy cutoff for augmentation   1131.4
 Maximum index for augmentation-charges in exchange          305
  SETUP_FOCK is finished

 total amount of memory used by VASP MPI-rank0   132895. kBytes
=======================================================================

   base      :      30000. kBytes
   nonlr-proj:      24700. kBytes
   fftplans  :       3912. kBytes
   grid      :      17166. kBytes
   one-center:       1022. kBytes
   HF        :         67. kBytes
   wavefun   :      56028. kBytes
 
     INWAV:  cpu time    4.6602: real time    4.8008
 Broyden mixing: mesh for mixing (old mesh)
   NGX = 23   NGY = 23   NGZ = 23
  (NGX  = 96   NGY  = 96   NGZ  = 96)
  gives a total of  12167 points

 charge density for first step will be calculated from the start-wavefunctions


--------------------------------------------------------------------------------------------------------


 Maximum index for non-local projection operator         3431
 Maximum index for augmentation-charges         1071 (set IRDMAX)


--------------------------------------------------------------------------------------------------------


 initial charge from wavefunction
 First call to EWALD:  gamma=   0.212
 Maximum number of real-space cells 3x 3x 3
 Maximum number of reciprocal cells 3x 3x 3

    FEWALD:  cpu time    0.0034: real time    0.0349


--------------------------------------- Iteration      1(   1)  ---------------------------------------


    POTLOK:  cpu time    0.5372: real time    0.6581
    SETDIJ:  cpu time    2.9123: real time    3.0630
    TRIAL :  cpu time   74.5084: real time   75.9544
    CORREC:  cpu time    0.0003: real time    0.0003
    CHARGE:  cpu time    0.1819: real time    0.1819
    --------------------------------------------
      LOOP:  cpu time   78.1647: real time   79.9039

 eigenvalue-minimisations  :     0
 total energy-change (2. order) :-0.4940170E+03  (-0.3529279E+00)
 number of electron     248.0000431 magnetization       0.0000000
 augmentation part       40.8810050 magnetization      -0.0143013

 Free energy of the ion-electron system (eV)
  ---------------------------------------------------
  alpha Z        PSCENC =       551.68464592
  Ewald energy   TEWEN  =    -11039.51100001
  -Hartree energ DENC   =     -4479.68662812
  -exchange      EXHF   =      1058.09464551
  -V(xc)+E(xc)   XCENC  =      -460.20501750
  PAW double counting   =     34822.20175764   -33793.99174752
  entropy T*S    EENTRO =        -0.00000000
  eigenvalues    EBANDS =     -1139.66808498
  atomic energy  EATOM  =     13987.06446509
  ---------------------------------------------------
  free energy    TOTEN  =      -494.01696398 eV

  energy without entropy =     -494.01696398  energy(sigma->0) =     -494.01696398
  exchange ACFDT corr.  =         0.00000000  see jH, gK, PRB 81, 115126


--------------------------------------------------------------------------------------------------------




--------------------------------------- Iteration      1(   2)  ---------------------------------------


    POTLOK:  cpu time    0.5244: real time    0.5244
    SETDIJ:  cpu time    2.8985: real time    2.8984
    TRIAL :  cpu time   77.1253: real time   77.1342
    CORREC:  cpu time    0.0003: real time    0.0003
    CHARGE:  cpu time    0.1822: real time    0.1822
    --------------------------------------------
      LOOP:  cpu time   80.7336: real time   81.0381

 eigenvalue-minimisations  :     0
 total energy-change (2. order) :-0.2917482E+00  (-0.2730530E+00)
 number of electron     248.0000431 magnetization       0.0000000
 augmentation part       40.8859002 magnetization      -0.0216934

 Free energy of the ion-electron system (eV)
  ---------------------------------------------------
  alpha Z        PSCENC =       551.68464592
  Ewald energy   TEWEN  =    -11039.51100001
  -Hartree energ DENC   =     -4477.07257982
  -exchange      EXHF   =      1058.08366342
  -V(xc)+E(xc)   XCENC  =      -460.19770129
  PAW double counting   =     34773.56075025   -33745.39731514
  entropy T*S    EENTRO =        -0.00000000
  eigenvalues    EBANDS =     -1142.52364063
  atomic energy  EATOM  =     13987.06446509
  ---------------------------------------------------
  free energy    TOTEN  =      -494.30871221 eV

  energy without entropy =     -494.30871221  energy(sigma->0) =     -494.30871221
  exchange ACFDT corr.  =         0.00000000  see jH, gK, PRB 81, 115126


--------------------------------------------------------------------------------------------------------




--------------------------------------- Iteration      1(   3)  ---------------------------------------


    POTLOK:  cpu time    0.5260: real time    0.5259
    SETDIJ:  cpu time    2.9128: real time    2.9125
    TRIAL :  cpu time   77.1591: real time   77.1749
    CORREC:  cpu time    0.0003: real time    0.0003
    CHARGE:  cpu time    0.1821: real time    0.1820
    --------------------------------------------
      LOOP:  cpu time   80.7820: real time   80.8019

 eigenvalue-minimisations  :     0
 total energy-change (2. order) :-0.1963301E+00  (-0.1067780E+00)
 number of electron     248.0000430 magnetization       0.0000000
 augmentation part       40.8877670 magnetization      -0.0276701

 Free energy of the ion-electron system (eV)
  ---------------------------------------------------
  alpha Z        PSCENC =       551.68464592
  Ewald energy   TEWEN  =    -11039.51100001
  -Hartree energ DENC   =     -4473.61749900
  -exchange      EXHF   =      1058.03123342
  -V(xc)+E(xc)   XCENC  =      -460.20588375
  PAW double counting   =     34717.54279176   -33689.42258829
  entropy T*S    EENTRO =        -0.00000000
  eigenvalues    EBANDS =     -1146.07120740
  atomic energy  EATOM  =     13987.06446509
  ---------------------------------------------------
  free energy    TOTEN  =      -494.50504227 eV

  energy without entropy =     -494.50504227  energy(sigma->0) =     -494.50504227
  exchange ACFDT corr.  =        -0.00000000  see jH, gK, PRB 81, 115126


--------------------------------------------------------------------------------------------------------




--------------------------------------- Iteration      1(   4)  ---------------------------------------


    POTLOK:  cpu time    0.5238: real time    0.5239
    SETDIJ:  cpu time    2.8950: real time    2.9007
    TRIAL :  cpu time   77.2153: real time   77.2241
    CORREC:  cpu time    0.0003: real time    0.0003
    CHARGE:  cpu time    0.1858: real time    0.1857
    --------------------------------------------
      LOOP:  cpu time   80.8217: real time   80.8405

 eigenvalue-minimisations  :     0
 total energy-change (2. order) :-0.7004912E-01  (-0.4609331E-01)
 number of electron     248.0000430 magnetization       0.0000000
 augmentation part       40.8874511 magnetization      -0.0313410

 Free energy of the ion-electron system (eV)
  ---------------------------------------------------
  alpha Z        PSCENC =       551.68464592
  Ewald energy   TEWEN  =    -11039.51100001
  -Hartree energ DENC   =     -4470.74001441
  -exchange      EXHF   =      1057.96277728
  -V(xc)+E(xc)   XCENC  =      -460.22380901
  PAW double counting   =     34674.76133892   -33646.66549694
  entropy T*S    EENTRO =        -0.00000000
  eigenvalues    EBANDS =     -1148.90799822
  atomic energy  EATOM  =     13987.06446509
  ---------------------------------------------------
  free energy    TOTEN  =      -494.57509139 eV

  energy without entropy =     -494.57509139  energy(sigma->0) =     -494.57509139
  exchange ACFDT corr.  =        -0.00000000  see jH, gK, PRB 81, 115126


--------------------------------------------------------------------------------------------------------




--------------------------------------- Iteration      1(   5)  ---------------------------------------


    POTLOK:  cpu time    0.5235: real time    0.5234
    SETDIJ:  cpu time    2.9010: real time    2.9009
    TRIAL :  cpu time   77.1850: real time   77.1887
    CORREC:  cpu time    0.0003: real time    0.0002
    CHARGE:  cpu time    0.1823: real time    0.1822
    --------------------------------------------
      LOOP:  cpu time   80.7937: real time   80.8018

 eigenvalue-minimisations  :     0
 total energy-change (2. order) :-0.3536122E-01  (-0.3909703E-01)
 number of electron     248.0000431 magnetization       0.0000000
 augmentation part       40.8856556 magnetization      -0.0327951

 Free energy of the ion-electron system (eV)
  ---------------------------------------------------
  alpha Z        PSCENC =       551.68464592
  Ewald energy   TEWEN  =    -11039.51100001
  -Hartree energ DENC   =     -4468.91475723
  -exchange      EXHF   =      1057.89945172
  -V(xc)+E(xc)   XCENC  =      -460.24386130
  PAW double counting   =     34649.98102395   -33621.89227912
  entropy T*S    EENTRO =        -0.00000000
  eigenvalues    EBANDS =     -1150.67814162
  atomic energy  EATOM  =     13987.06446509
  ---------------------------------------------------
  free energy    TOTEN  =      -494.61045261 eV

  energy without entropy =     -494.61045261  energy(sigma->0) =     -494.61045261
  exchange ACFDT corr.  =        -0.00000000  see jH, gK, PRB 81, 115126


--------------------------------------------------------------------------------------------------------




--------------------------------------- Iteration      1(   6)  ---------------------------------------


    POTLOK:  cpu time    0.5258: real time    0.5258
    SETDIJ:  cpu time    2.8986: real time    2.8986
    TRIAL :  cpu time   77.1225: real time   77.1242
    CORREC:  cpu time    0.0002: real time    0.0002
    CHARGE:  cpu time    0.1868: real time    0.1869
    --------------------------------------------
      LOOP:  cpu time   80.7356: real time   80.7420

 eigenvalue-minimisations  :     0
 total energy-change (2. order) :-0.3340971E-01  (-0.3086486E-01)
 number of electron     248.0000431 magnetization       0.0000000
 augmentation part       40.8833457 magnetization      -0.0324382

 Free energy of the ion-electron system (eV)
  ---------------------------------------------------
  alpha Z        PSCENC =       551.68464592
  Ewald energy   TEWEN  =    -11039.51100001
  -Hartree energ DENC   =     -4467.97392934
  -exchange      EXHF   =      1057.84679292
  -V(xc)+E(xc)   XCENC  =      -460.26273253
  PAW double counting   =     34640.12317108   -33612.02852804
  entropy T*S    EENTRO =        -0.00000000
  eigenvalues    EBANDS =     -1151.58674742
  atomic energy  EATOM  =     13987.06446509
  ---------------------------------------------------
  free energy    TOTEN  =      -494.64386232 eV

  energy without entropy =     -494.64386232  energy(sigma->0) =     -494.64386232
  exchange ACFDT corr.  =        -0.00000000  see jH, gK, PRB 81, 115126


--------------------------------------------------------------------------------------------------------




--------------------------------------- Iteration      1(   7)  ---------------------------------------


    POTLOK:  cpu time    0.5251: real time    0.5263
    SETDIJ:  cpu time    2.9016: real time    2.9038
    TRIAL :  cpu time   77.1995: real time   77.2050
    CORREC:  cpu time    0.0002: real time    0.0002
    CHARGE:  cpu time    0.1831: real time    0.1830
    --------------------------------------------
      LOOP:  cpu time   80.8141: real time   80.8233

 eigenvalue-minimisations  :     0
 total energy-change (2. order) :-0.2554326E-01  (-0.1836736E-01)
 number of electron     248.0000431 magnetization       0.0000000
 augmentation part       40.8815422 magnetization      -0.0308053

 Free energy of the ion-electron system (eV)
  ---------------------------------------------------
  alpha Z        PSCENC =       551.68464592
  Ewald energy   TEWEN  =    -11039.51100001
  -Hartree energ DENC   =     -4467.57976594
  -exchange      EXHF   =      1057.80812707
  -V(xc)+E(xc)   XCENC  =      -460.27727944
  PAW double counting   =     34638.83442484   -33610.72732260
  entropy T*S    EENTRO =        -0.00000000
  eigenvalues    EBANDS =     -1151.96570052
  atomic energy  EATOM  =     13987.06446509
  ---------------------------------------------------
  free energy    TOTEN  =      -494.66940558 eV

  energy without entropy =     -494.66940558  energy(sigma->0) =     -494.66940558
  exchange ACFDT corr.  =         0.00000000  see jH, gK, PRB 81, 115126


--------------------------------------------------------------------------------------------------------




--------------------------------------- Iteration      1(   8)  ---------------------------------------


    POTLOK:  cpu time    0.5224: real time    0.5223
    SETDIJ:  cpu time    2.9005: real time    2.9002
    TRIAL :  cpu time   77.0989: real time   77.1094
    CORREC:  cpu time    0.0002: real time    0.0002
    CHARGE:  cpu time    0.1831: real time    0.1830
    --------------------------------------------
      LOOP:  cpu time   80.7070: real time   80.7216

 eigenvalue-minimisations  :     0
 total energy-change (2. order) :-0.1484068E-01  (-0.9919619E-02)
 number of electron     248.0000431 magnetization       0.0000000
 augmentation part       40.8806107 magnetization      -0.0285276

 Free energy of the ion-electron system (eV)
  ---------------------------------------------------
  alpha Z        PSCENC =       551.68464592
  Ewald energy   TEWEN  =    -11039.51100001
  -Hartree energ DENC   =     -4467.44502601
  -exchange      EXHF   =      1057.78543617
  -V(xc)+E(xc)   XCENC  =      -460.28544890
  PAW double counting   =     34640.38585123   -33612.26696032
  entropy T*S    EENTRO =        -0.00000000
  eigenvalues    EBANDS =     -1152.09620942
  atomic energy  EATOM  =     13987.06446509
  ---------------------------------------------------
  free energy    TOTEN  =      -494.68424626 eV

  energy without entropy =     -494.68424626  energy(sigma->0) =     -494.68424626
  exchange ACFDT corr.  =         0.00000000  see jH, gK, PRB 81, 115126


--------------------------------------------------------------------------------------------------------




--------------------------------------- Iteration      1(   9)  ---------------------------------------


    POTLOK:  cpu time    0.5226: real time    0.5229
    SETDIJ:  cpu time    2.8984: real time    2.8982
    TRIAL :  cpu time   76.9678: real time   76.9778
    CORREC:  cpu time    0.0002: real time    0.0002
    CHARGE:  cpu time    0.1878: real time    0.1877
    --------------------------------------------
      LOOP:  cpu time   80.5834: real time   80.5934

 eigenvalue-minimisations  :     0
 total energy-change (2. order) :-0.8232394E-02  (-0.6038926E-02)
 number of electron     248.0000431 magnetization       0.0000000
 augmentation part       40.8802366 magnetization      -0.0261075

 Free energy of the ion-electron system (eV)
  ---------------------------------------------------
  alpha Z        PSCENC =       551.68464592
  Ewald energy   TEWEN  =    -11039.51100001
  -Hartree energ DENC   =     -4467.37917165
  -exchange      EXHF   =      1057.77595505
  -V(xc)+E(xc)   XCENC  =      -460.28814466
  PAW double counting   =     34641.79371938   -33613.66745377
  entropy T*S    EENTRO =        -0.00000000
  eigenvalues    EBANDS =     -1152.16549401
  atomic energy  EATOM  =     13987.06446509
  ---------------------------------------------------
  free energy    TOTEN  =      -494.69247865 eV

  energy without entropy =     -494.69247865  energy(sigma->0) =     -494.69247865
  exchange ACFDT corr.  =         0.00000000  see jH, gK, PRB 81, 115126


--------------------------------------------------------------------------------------------------------




--------------------------------------- Iteration      1(  10)  ---------------------------------------


    POTLOK:  cpu time    0.5315: real time    0.5314
    SETDIJ:  cpu time    2.8922: real time    2.8919
    TRIAL :  cpu time   77.0574: real time   77.0682
    CORREC:  cpu time    0.0002: real time    0.0002
    CHARGE:  cpu time    0.1818: real time    0.1817
    --------------------------------------------
      LOOP:  cpu time   80.6650: real time   80.6799

 eigenvalue-minimisations  :     0
 total energy-change (2. order) :-0.5224184E-02  (-0.4058693E-02)
 number of electron     248.0000431 magnetization       0.0000000
 augmentation part       40.8800224 magnetization      -0.0238171

 Free energy of the ion-electron system (eV)
  ---------------------------------------------------
  alpha Z        PSCENC =       551.68464592
  Ewald energy   TEWEN  =    -11039.51100001
  -Hartree energ DENC   =     -4467.28983874
  -exchange      EXHF   =      1057.77329844
  -V(xc)+E(xc)   XCENC  =      -460.28827148
  PAW double counting   =     34642.45862433   -33614.32864110
  entropy T*S    EENTRO =        -0.00000000
  eigenvalues    EBANDS =     -1152.26098529
  atomic energy  EATOM  =     13987.06446509
  ---------------------------------------------------
  free energy    TOTEN  =      -494.69770284 eV

  energy without entropy =     -494.69770284  energy(sigma->0) =     -494.69770284
  exchange ACFDT corr.  =         0.00000000  see jH, gK, PRB 81, 115126


--------------------------------------------------------------------------------------------------------




--------------------------------------- Iteration      1(  11)  ---------------------------------------


    POTLOK:  cpu time    0.5291: real time    0.5290
    SETDIJ:  cpu time    2.9126: real time    2.9126
    TRIAL :  cpu time   76.9825: real time   76.9981
    CORREC:  cpu time    0.0003: real time    0.0003
    CHARGE:  cpu time    0.1830: real time    0.1829
    --------------------------------------------
      LOOP:  cpu time   80.6091: real time   80.6295

 eigenvalue-minimisations  :     0
 total energy-change (2. order) :-0.3566436E-02  (-0.2724502E-02)
 number of electron     248.0000431 magnetization       0.0000000
 augmentation part       40.8797973 magnetization      -0.0217454

 Free energy of the ion-electron system (eV)
  ---------------------------------------------------
  alpha Z        PSCENC =       551.68464592
  Ewald energy   TEWEN  =    -11039.51100001
  -Hartree energ DENC   =     -4467.16313463
  -exchange      EXHF   =      1057.77246437
  -V(xc)+E(xc)   XCENC  =      -460.28807180
  PAW double counting   =     34642.66663579   -33614.53454024
  entropy T*S    EENTRO =        -0.00000000
  eigenvalues    EBANDS =     -1152.39273375
  atomic energy  EATOM  =     13987.06446509
  ---------------------------------------------------
  free energy    TOTEN  =      -494.70126927 eV

  energy without entropy =     -494.70126927  energy(sigma->0) =     -494.70126927
  exchange ACFDT corr.  =         0.00000000  see jH, gK, PRB 81, 115126


--------------------------------------------------------------------------------------------------------




--------------------------------------- Iteration      1(  12)  ---------------------------------------


    POTLOK:  cpu time    0.5231: real time    0.5231
    SETDIJ:  cpu time    2.9075: real time    2.9072
    TRIAL :  cpu time   77.0864: real time   77.0952
    CORREC:  cpu time    0.0003: real time    0.0003
    CHARGE:  cpu time    0.1847: real time    0.1848
    --------------------------------------------
      LOOP:  cpu time   80.7040: real time   80.7169

 eigenvalue-minimisations  :     0
 total energy-change (2. order) :-0.2404121E-02  (-0.1807393E-02)
 number of electron     248.0000431 magnetization       0.0000000
 augmentation part       40.8795686 magnetization      -0.0198841

 Free energy of the ion-electron system (eV)
  ---------------------------------------------------
  alpha Z        PSCENC =       551.68464592
  Ewald energy   TEWEN  =    -11039.51100001
  -Hartree energ DENC   =     -4467.02398975
  -exchange      EXHF   =      1057.77141095
  -V(xc)+E(xc)   XCENC  =      -460.28835478
  PAW double counting   =     34642.70072986   -33614.56699310
  entropy T*S    EENTRO =        -0.00000000
  eigenvalues    EBANDS =     -1152.53458757
  atomic energy  EATOM  =     13987.06446509
  ---------------------------------------------------
  free energy    TOTEN  =      -494.70367339 eV

  energy without entropy =     -494.70367339  energy(sigma->0) =     -494.70367339
  exchange ACFDT corr.  =         0.00000000  see jH, gK, PRB 81, 115126


--------------------------------------------------------------------------------------------------------




--------------------------------------- Iteration      1(  13)  ---------------------------------------


    POTLOK:  cpu time    0.5233: real time    0.5233
    SETDIJ:  cpu time    2.8920: real time    2.8919
    TRIAL :  cpu time   77.1250: real time   77.1331
    CORREC:  cpu time    0.0003: real time    0.0003
    CHARGE:  cpu time    0.1839: real time    0.1839
    --------------------------------------------
      LOOP:  cpu time   80.7261: real time   80.7388

 eigenvalue-minimisations  :     0
 total energy-change (2. order) :-0.1609387E-02  (-0.1226760E-02)
 number of electron     248.0000431 magnetization       0.0000000
 augmentation part       40.8793836 magnetization      -0.0181950

 Free energy of the ion-electron system (eV)
  ---------------------------------------------------
  alpha Z        PSCENC =       551.68464592
  Ewald energy   TEWEN  =    -11039.51100001
  -Hartree energ DENC   =     -4466.90333416
  -exchange      EXHF   =      1057.77018230
  -V(xc)+E(xc)   XCENC  =      -460.28896122
  PAW double counting   =     34642.67964280   -33614.54454838
  entropy T*S    EENTRO =        -0.00000000
  eigenvalues    EBANDS =     -1152.65637512
  atomic energy  EATOM  =     13987.06446509
  ---------------------------------------------------
  free energy    TOTEN  =      -494.70528278 eV

  energy without entropy =     -494.70528278  energy(sigma->0) =     -494.70528278
  exchange ACFDT corr.  =         0.00000000  see jH, gK, PRB 81, 115126


--------------------------------------------------------------------------------------------------------




--------------------------------------- Iteration      1(  14)  ---------------------------------------


    POTLOK:  cpu time    0.5299: real time    0.5297
    SETDIJ:  cpu time    2.9186: real time    2.9184
    TRIAL :  cpu time   77.1592: real time   77.1705
    CORREC:  cpu time    0.0003: real time    0.0003
    CHARGE:  cpu time    0.1835: real time    0.1835
    --------------------------------------------
      LOOP:  cpu time   80.7975: real time   80.8084

 eigenvalue-minimisations  :     0
 total energy-change (2. order) :-0.1108715E-02  (-0.8694840E-03)
 number of electron     248.0000431 magnetization       0.0000000
 augmentation part       40.8792730 magnetization      -0.0166396

 Free energy of the ion-electron system (eV)
  ---------------------------------------------------
  alpha Z        PSCENC =       551.68464592
  Ewald energy   TEWEN  =    -11039.51100001
  -Hartree energ DENC   =     -4466.82103859
  -exchange      EXHF   =      1057.76948526
  -V(xc)+E(xc)   XCENC  =      -460.28944991
  PAW double counting   =     34642.62448550   -33614.48835673
  entropy T*S    EENTRO =        -0.00000000
  eigenvalues    EBANDS =     -1152.73962803
  atomic energy  EATOM  =     13987.06446509
  ---------------------------------------------------
  free energy    TOTEN  =      -494.70639150 eV

  energy without entropy =     -494.70639150  energy(sigma->0) =     -494.70639150
  exchange ACFDT corr.  =         0.00000000  see jH, gK, PRB 81, 115126


--------------------------------------------------------------------------------------------------------




--------------------------------------- Iteration      1(  15)  ---------------------------------------


    POTLOK:  cpu time    0.5248: real time    0.5247
    SETDIJ:  cpu time    2.9128: real time    2.9126
    TRIAL :  cpu time   77.0642: real time   77.0702
    CORREC:  cpu time    0.0002: real time    0.0002
    CHARGE:  cpu time    0.1822: real time    0.1821
    --------------------------------------------
      LOOP:  cpu time   80.6865: real time   80.6962

 eigenvalue-minimisations  :     0
 total energy-change (2. order) :-0.7964158E-03  (-0.6370113E-03)
 number of electron     248.0000431 magnetization       0.0000000
 augmentation part       40.8792327 magnetization      -0.0151929

 Free energy of the ion-electron system (eV)
  ---------------------------------------------------
  alpha Z        PSCENC =       551.68464592
  Ewald energy   TEWEN  =    -11039.51100001
  -Hartree energ DENC   =     -4466.78055964
  -exchange      EXHF   =      1057.76979484
  -V(xc)+E(xc)   XCENC  =      -460.28951573
  PAW double counting   =     34642.53775418   -33614.40092369
  entropy T*S    EENTRO =        -0.00000000
  eigenvalues    EBANDS =     -1152.78184887
  atomic energy  EATOM  =     13987.06446509
  ---------------------------------------------------
  free energy    TOTEN  =      -494.70718791 eV

  energy without entropy =     -494.70718791  energy(sigma->0) =     -494.70718791
  exchange ACFDT corr.  =         0.00000000  see jH, gK, PRB 81, 115126


--------------------------------------------------------------------------------------------------------




--------------------------------------- Iteration      1(  16)  ---------------------------------------


    POTLOK:  cpu time    0.5231: real time    0.5232
    SETDIJ:  cpu time    2.8955: real time    2.8974
    TRIAL :  cpu time   77.0691: real time   77.0659
    CORREC:  cpu time    0.0002: real time    0.0002
    CHARGE:  cpu time    0.1817: real time    0.1816
    --------------------------------------------
      LOOP:  cpu time   80.6714: real time   80.6756

 eigenvalue-minimisations  :     0
 total energy-change (2. order) :-0.5880885E-03  (-0.4734339E-03)
 number of electron     248.0000431 magnetization       0.0000000
 augmentation part       40.8792351 magnetization      -0.0138449

 Free energy of the ion-electron system (eV)
  ---------------------------------------------------
  alpha Z        PSCENC =       551.68464592
  Ewald energy   TEWEN  =    -11039.51100001
  -Hartree energ DENC   =     -4466.77114702
  -exchange      EXHF   =      1057.77095099
  -V(xc)+E(xc)   XCENC  =      -460.28918796
  PAW double counting   =     34642.46209417   -33614.32484761
  entropy T*S    EENTRO =        -0.00000000
  eigenvalues    EBANDS =     -1152.79374958
  atomic energy  EATOM  =     13987.06446509
  ---------------------------------------------------
  free energy    TOTEN  =      -494.70777600 eV

  energy without entropy =     -494.70777600  energy(sigma->0) =     -494.70777600
  exchange ACFDT corr.  =         0.00000000  see jH, gK, PRB 81, 115126


--------------------------------------------------------------------------------------------------------




--------------------------------------- Iteration      1(  17)  ---------------------------------------


    POTLOK:  cpu time    0.5254: real time    0.5253
    SETDIJ:  cpu time    2.8855: real time    2.8920
    TRIAL :  cpu time   77.0856: real time   77.0815
    CORREC:  cpu time    0.0003: real time    0.0003
    CHARGE:  cpu time    0.1814: real time    0.1814
    --------------------------------------------
      LOOP:  cpu time   80.6799: real time   80.9836

 eigenvalue-minimisations  :     0
 total energy-change (2. order) :-0.4390047E-03  (-0.3543908E-03)
 number of electron     248.0000431 magnetization       0.0000000
 augmentation part       40.8792455 magnetization      -0.0125945

 Free energy of the ion-electron system (eV)
  ---------------------------------------------------
  alpha Z        PSCENC =       551.68464592
  Ewald energy   TEWEN  =    -11039.51100001
  -Hartree energ DENC   =     -4466.77726013
  -exchange      EXHF   =      1057.77246116
  -V(xc)+E(xc)   XCENC  =      -460.28868111
  PAW double counting   =     34642.44961398   -33614.31212499
  entropy T*S    EENTRO =        -0.00000000
  eigenvalues    EBANDS =     -1152.79033491
  atomic energy  EATOM  =     13987.06446509
  ---------------------------------------------------
  free energy    TOTEN  =      -494.70821501 eV

  energy without entropy =     -494.70821501  energy(sigma->0) =     -494.70821501
  exchange ACFDT corr.  =         0.00000000  see jH, gK, PRB 81, 115126


--------------------------------------------------------------------------------------------------------




--------------------------------------- Iteration      1(  18)  ---------------------------------------


    POTLOK:  cpu time    0.5244: real time    0.5245
    SETDIJ:  cpu time    2.8976: real time    2.8973
    TRIAL :  cpu time   77.2216: real time   77.2305
    CORREC:  cpu time    0.0003: real time    0.0003
    CHARGE:  cpu time    0.1819: real time    0.1818
    --------------------------------------------
      LOOP:  cpu time   80.8275: real time   80.8410

 eigenvalue-minimisations  :     0
 total energy-change (2. order) :-0.3297984E-03  (-0.2674702E-03)
 number of electron     248.0000431 magnetization       0.0000000
 augmentation part       40.8792418 magnetization      -0.0114423

 Free energy of the ion-electron system (eV)
  ---------------------------------------------------
  alpha Z        PSCENC =       551.68464592
  Ewald energy   TEWEN  =    -11039.51100001
  -Hartree energ DENC   =     -4466.78647926
  -exchange      EXHF   =      1057.77386424
  -V(xc)+E(xc)   XCENC  =      -460.28820599
  PAW double counting   =     34642.51944832   -33614.38175917
  entropy T*S    EENTRO =        -0.00000000
  eigenvalues    EBANDS =     -1152.78352394
  atomic energy  EATOM  =     13987.06446509
  ---------------------------------------------------
  free energy    TOTEN  =      -494.70854480 eV

  energy without entropy =     -494.70854480  energy(sigma->0) =     -494.70854480
  exchange ACFDT corr.  =         0.00000000  see jH, gK, PRB 81, 115126


--------------------------------------------------------------------------------------------------------




--------------------------------------- Iteration      1(  19)  ---------------------------------------


    POTLOK:  cpu time    0.5261: real time    0.5261
    SETDIJ:  cpu time    2.9043: real time    2.9043
    TRIAL :  cpu time   77.2170: real time   77.2174
    CORREC:  cpu time    0.0003: real time    0.0002
    CHARGE:  cpu time    0.1827: real time    0.1902
    --------------------------------------------
      LOOP:  cpu time   80.8320: real time   80.8449

 eigenvalue-minimisations  :     0
 total energy-change (2. order) :-0.2497429E-03  (-0.2036512E-03)
 number of electron     248.0000431 magnetization       0.0000000
 augmentation part       40.8792207 magnetization      -0.0103877

 Free energy of the ion-electron system (eV)
  ---------------------------------------------------
  alpha Z        PSCENC =       551.68464592
  Ewald energy   TEWEN  =    -11039.51100001
  -Hartree energ DENC   =     -4466.79261666
  -exchange      EXHF   =      1057.77492920
  -V(xc)+E(xc)   XCENC  =      -460.28787041
  PAW double counting   =     34642.64844162   -33614.51050371
  entropy T*S    EENTRO =        -0.00000000
  eigenvalues    EBANDS =     -1152.77928558
  atomic energy  EATOM  =     13987.06446509
  ---------------------------------------------------
  free energy    TOTEN  =      -494.70879455 eV

  energy without entropy =     -494.70879455  energy(sigma->0) =     -494.70879455
  exchange ACFDT corr.  =         0.00000000  see jH, gK, PRB 81, 115126


--------------------------------------------------------------------------------------------------------




--------------------------------------- Iteration      1(  20)  ---------------------------------------


    POTLOK:  cpu time    0.5236: real time    0.5239
    SETDIJ:  cpu time    2.8947: real time    2.8965
    TRIAL :  cpu time   77.0809: real time   77.0886
    CORREC:  cpu time    0.0002: real time    0.0002
    CHARGE:  cpu time    0.1820: real time    0.1820
    --------------------------------------------
      LOOP:  cpu time   80.6849: real time   80.6987

 eigenvalue-minimisations  :     0
 total energy-change (2. order) :-0.1906466E-03  (-0.1561198E-03)
 number of electron     248.0000431 magnetization       0.0000000
 augmentation part       40.8791908 magnetization      -0.0094284

 Free energy of the ion-electron system (eV)
  ---------------------------------------------------
  alpha Z        PSCENC =       551.68464592
  Ewald energy   TEWEN  =    -11039.51100001
  -Hartree energ DENC   =     -4466.79456103
  -exchange      EXHF   =      1057.77563640
  -V(xc)+E(xc)   XCENC  =      -460.28767695
  PAW double counting   =     34642.79316749   -33614.65493003
  entropy T*S    EENTRO =        -0.00000000
  eigenvalues    EBANDS =     -1152.77873208
  atomic energy  EATOM  =     13987.06446509
  ---------------------------------------------------
  free energy    TOTEN  =      -494.70898519 eV

  energy without entropy =     -494.70898519  energy(sigma->0) =     -494.70898519
  exchange ACFDT corr.  =         0.00000000  see jH, gK, PRB 81, 115126


--------------------------------------------------------------------------------------------------------




--------------------------------------- Iteration      1(  21)  ---------------------------------------


    POTLOK:  cpu time    0.5243: real time    0.5244
    SETDIJ:  cpu time    2.9004: real time    2.9003
    TRIAL :  cpu time   77.2401: real time   77.2674
    CORREC:  cpu time    0.0002: real time    0.0002
    CHARGE:  cpu time    0.1804: real time    0.1803
    --------------------------------------------
      LOOP:  cpu time   80.8470: real time   80.8791

 eigenvalue-minimisations  :     0
 total energy-change (2. order) :-0.1464095E-03  (-0.1202291E-03)
 number of electron     248.0000431 magnetization       0.0000000
 augmentation part       40.8791617 magnetization      -0.0085595

 Free energy of the ion-electron system (eV)
  ---------------------------------------------------
  alpha Z        PSCENC =       551.68464592
  Ewald energy   TEWEN  =    -11039.51100001
  -Hartree energ DENC   =     -4466.79366999
  -exchange      EXHF   =      1057.77606926
  -V(xc)+E(xc)   XCENC  =      -460.28758266
  PAW double counting   =     34642.91810762   -33614.77956770
  entropy T*S    EENTRO =        -0.00000000
  eigenvalues    EBANDS =     -1152.78059913
  atomic energy  EATOM  =     13987.06446509
  ---------------------------------------------------
  free energy    TOTEN  =      -494.70913160 eV

  energy without entropy =     -494.70913160  energy(sigma->0) =     -494.70913160
  exchange ACFDT corr.  =         0.00000000  see jH, gK, PRB 81, 115126


--------------------------------------------------------------------------------------------------------




--------------------------------------- Iteration      1(  22)  ---------------------------------------


    POTLOK:  cpu time    0.5243: real time    0.5242
    SETDIJ:  cpu time    2.8994: real time    2.8994
    TRIAL :  cpu time   77.0707: real time   77.0846
    CORREC:  cpu time    0.0002: real time    0.0002
    CHARGE:  cpu time    0.1815: real time    0.1814
    --------------------------------------------
      LOOP:  cpu time   80.6824: real time   80.6964

 eigenvalue-minimisations  :     0
 total energy-change (2. order) :-0.1129001E-03  (-0.9292363E-04)
 number of electron     248.0000431 magnetization       0.0000000
 augmentation part       40.8791388 magnetization      -0.0077740

 Free energy of the ion-electron system (eV)
  ---------------------------------------------------
  alpha Z        PSCENC =       551.68464592
  Ewald energy   TEWEN  =    -11039.51100001
  -Hartree energ DENC   =     -4466.79179922
  -exchange      EXHF   =      1057.77633124
  -V(xc)+E(xc)   XCENC  =      -460.28753804
  PAW double counting   =     34643.00622108   -33614.86742773
  entropy T*S    EENTRO =        -0.00000000
  eigenvalues    EBANDS =     -1152.78314283
  atomic energy  EATOM  =     13987.06446509
  ---------------------------------------------------
  free energy    TOTEN  =      -494.70924450 eV

  energy without entropy =     -494.70924450  energy(sigma->0) =     -494.70924450
  exchange ACFDT corr.  =         0.00000000  see jH, gK, PRB 81, 115126


--------------------------------------------------------------------------------------------------------




--------------------------------------- Iteration      1(  23)  ---------------------------------------


    POTLOK:  cpu time    0.5232: real time    0.5233
    SETDIJ:  cpu time    2.9013: real time    2.9010
    TRIAL :  cpu time   77.0430: real time   77.0371
    CORREC:  cpu time    0.0002: real time    0.0002
    CHARGE:  cpu time    0.1810: real time    0.1809
    --------------------------------------------
      LOOP:  cpu time   80.6504: real time   80.6505

 eigenvalue-minimisations  :     0
 total energy-change (2. order) :-0.8735712E-04  (-0.7207209E-04)
 number of electron     248.0000431 magnetization       0.0000000
 augmentation part       40.8791227 magnetization      -0.0070637

 Free energy of the ion-electron system (eV)
  ---------------------------------------------------
  alpha Z        PSCENC =       551.68464592
  Ewald energy   TEWEN  =    -11039.51100001
  -Hartree energ DENC   =     -4466.79021239
  -exchange      EXHF   =      1057.77650265
  -V(xc)+E(xc)   XCENC  =      -460.28751004
  PAW double counting   =     34643.05857812   -33614.91959768
[...]
     8.345700851  8.345700851  8.345700851     0.119822172  0.119822172  0.119822172


 FORCES acting on ions:
    Electron-Ion                     Ewald-Force                    Non-Local-Force
 -----------------------------------------------------------------------------------------------
   -.404E+02 -.359E-01 0.170E-01   0.368E+02 0.320E-01 -.925E-02   0.211E+01 0.719E-02 0.117E-02
   -.301E+01 0.106E+00 -.375E-01   0.283E+01 -.982E-01 0.398E-01   0.171E+00 -.295E-01 0.166E-01
   -.290E+01 0.136E-01 -.106E-01   0.272E+01 -.160E-01 0.203E-01   0.115E+00 -.104E-01 0.298E-01
   -.166E+01 -.786E-01 0.115E+00   0.147E+01 0.737E-01 -.936E-01   0.101E+00 0.222E-01 -.599E-02
   0.402E+02 -.373E-01 0.105E+00   -.367E+02 0.322E-01 -.107E+00   -.208E+01 0.902E-02 -.295E-01
   0.310E+01 0.280E-01 -.108E+00   -.290E+01 -.249E-01 0.871E-01   -.171E+00 -.104E-01 0.255E-02
   0.288E+01 0.526E-01 -.509E-01   -.272E+01 -.489E-01 0.426E-01   -.134E+00 -.260E-01 -.185E-02
   0.169E+01 -.116E+00 0.630E-01   -.149E+01 0.105E+00 -.657E-01   -.966E-01 0.206E-01 -.227E-01
   -.507E+01 0.516E+01 0.500E+01   0.478E+01 -.484E+01 -.470E+01   0.328E-01 -.593E-01 -.909E-02
   -.507E+01 0.507E+01 -.480E+01   0.477E+01 -.477E+01 0.453E+01   0.362E-01 -.538E-01 -.498E-02
   -.509E+01 -.513E+01 0.503E+01   0.479E+01 0.482E+01 -.472E+01   0.580E-01 0.629E-01 -.323E-01
   -.516E+01 -.509E+01 -.505E+01   0.484E+01 0.478E+01 0.475E+01   0.542E-01 0.375E-01 0.514E-01
   0.503E+01 0.526E+01 0.511E+01   -.473E+01 -.494E+01 -.481E+01   -.233E-01 -.663E-01 -.454E-01
   0.499E+01 0.511E+01 -.515E+01   -.471E+01 -.482E+01 0.484E+01   -.300E-01 -.400E-01 0.546E-01
   0.517E+01 -.508E+01 0.515E+01   -.485E+01 0.479E+01 -.485E+01   -.649E-01 0.484E-01 -.815E-01
   0.515E+01 -.509E+01 -.531E+01   -.484E+01 0.479E+01 0.497E+01   -.752E-01 0.329E-01 0.727E-01
   -.493E-01 -.698E-01 0.403E+02   0.577E-01 0.714E-01 -.367E+02   0.457E-02 0.189E-01 -.210E+01
   -.317E-01 -.160E+00 -.403E+02   0.279E-01 0.148E+00 0.367E+02   0.370E-02 0.299E-01 0.209E+01
   0.137E+00 0.103E+00 0.309E+01   -.119E+00 -.819E-01 -.290E+01   -.959E-02 -.752E-02 -.177E+00
   0.693E-01 0.127E+00 -.312E+01   -.724E-01 -.117E+00 0.293E+01   -.162E-01 -.318E-01 0.189E+00
   0.241E+00 0.140E+00 0.280E+01   -.218E+00 -.126E+00 -.264E+01   -.286E-01 -.248E-01 -.118E+00
   0.557E-01 0.552E-01 -.291E+01   -.588E-01 -.544E-01 0.273E+01   -.215E-01 -.232E-01 0.118E+00
   0.399E-01 -.121E+00 0.168E+01   -.249E-01 0.113E+00 -.148E+01   0.713E-02 0.297E-01 -.980E-01
   -.219E+00 -.624E-01 -.168E+01   0.198E+00 0.535E-01 0.148E+01   0.283E-01 0.771E-02 0.962E-01
   0.130E+00 0.403E+02 -.101E+00   -.122E+00 -.367E+02 0.945E-01   -.343E-01 -.210E+01 0.216E-01
   -.296E-02 0.298E+01 0.866E-01   0.195E-02 -.279E+01 -.688E-01   0.161E-01 -.124E+00 -.711E-02
   -.633E-02 -.404E+02 0.687E-02   0.689E-02 0.368E+02 -.752E-02   -.752E-02 0.210E+01 -.835E-02
   -.130E-01 -.283E+01 -.497E-01   0.113E-01 0.267E+01 0.378E-01   0.181E-01 0.121E+00 0.942E-02
   -.128E+00 0.307E+01 0.262E-01   0.102E+00 -.288E+01 -.211E-01   0.159E-01 -.177E+00 0.661E-02
   0.347E-01 0.163E+01 -.567E-02   -.299E-01 -.144E+01 0.100E-01   -.178E-01 -.731E-01 0.699E-02
   -.452E-01 -.308E+01 0.407E-01   0.288E-01 0.289E+01 -.384E-01   0.128E-02 0.169E+00 -.120E-01
   0.675E-01 -.165E+01 -.150E-01   -.522E-01 0.146E+01 0.986E-02   -.147E-01 0.868E-01 0.267E-02
   -.284E+00 -.206E+00 -.404E-01   0.234E+00 0.134E+00 0.798E-01   0.602E-01 0.725E-01 -.286E-01
   0.319E-01 -.227E-02 -.953E-01   0.610E-02 0.408E-01 0.768E-01   -.343E-01 -.287E-01 0.176E-01
   0.310E+00 -.103E+00 0.103E+00   -.308E+00 0.303E-01 -.135E+00   -.460E-02 0.700E-01 0.213E-01
   0.193E+00 0.100E+00 0.247E+00   -.212E+00 -.552E-01 -.190E+00   0.427E-04 -.391E-01 -.628E-01
   0.110E+00 0.225E+00 0.233E-01   -.187E+00 -.283E+00 0.532E-01   0.633E-01 0.321E-01 -.639E-01
   0.117E+00 -.205E-01 -.794E-03   0.343E-02 0.566E-01 0.178E-01   -.997E-01 -.279E-01 -.126E-01
   -.384E+00 -.220E+00 0.209E-01   0.317E+00 0.226E+00 -.325E-01   0.679E-01 0.122E-01 0.745E-02
   -.374E-01 0.356E+02 0.354E+02   0.837E-02 -.329E+02 -.326E+02   0.258E-01 -.273E+01 -.272E+01
   0.425E+00 0.355E+02 -.353E+02   -.356E+00 -.326E+02 0.324E+02   -.800E-01 -.281E+01 0.282E+01
   -.192E+00 -.355E+02 0.353E+02   0.132E+00 0.326E+02 -.325E+02   0.583E-01 0.288E+01 -.278E+01
   0.187E+00 -.356E+02 -.354E+02   -.791E-01 0.327E+02 0.326E+02   -.973E-01 0.282E+01 0.274E+01
   0.390E-01 0.679E+01 0.649E+01   -.788E-01 -.605E+01 -.575E+01   0.355E-01 -.704E+00 -.678E+00
   -.193E+00 0.684E+01 -.660E+01   0.217E+00 -.600E+01 0.575E+01   -.742E-02 -.789E+00 0.781E+00
   -.251E-01 -.683E+01 0.652E+01   -.386E-01 0.603E+01 -.572E+01   0.648E-01 0.759E+00 -.733E+00
   -.188E-01 -.674E+01 -.655E+01   0.921E-01 0.601E+01 0.581E+01   -.589E-01 0.692E+00 0.690E+00
   -.356E+02 0.200E-01 0.353E+02   0.327E+02 -.466E-01 -.325E+02   0.284E+01 0.217E-01 -.275E+01
   -.353E+02 -.974E-01 -.354E+02   0.325E+02 0.149E+00 0.325E+02   0.272E+01 -.366E-01 0.286E+01
   -.679E+01 -.286E-01 0.622E+01   0.591E+01 0.331E-01 -.559E+01   0.816E+00 -.149E-02 -.572E+00
   -.634E+01 0.208E+00 -.658E+01   0.563E+01 -.132E+00 0.567E+01   0.645E+00 -.747E-01 0.835E+00
   0.351E+02 -.716E-01 0.357E+02   -.323E+02 0.399E-01 -.327E+02   -.269E+01 0.327E-01 -.291E+01
   0.355E+02 -.768E-01 -.353E+02   -.326E+02 0.956E-01 0.326E+02   -.283E+01 -.840E-02 0.267E+01
   0.640E+01 -.182E+00 0.710E+01   -.572E+01 0.155E+00 -.626E+01   -.622E+00 0.357E-01 -.808E+00
   0.665E+01 0.269E-01 -.702E+01   -.582E+01 -.293E-01 0.633E+01   -.762E+00 -.145E-02 0.673E+00
   -.353E+02 0.355E+02 -.177E+00   0.326E+02 -.326E+02 0.116E+00   0.270E+01 -.281E+01 0.668E-01
   -.673E+01 0.639E+01 -.250E+00   0.594E+01 -.562E+01 0.150E+00   0.738E+00 -.704E+00 0.950E-01
   -.355E+02 -.354E+02 -.589E-01   0.327E+02 0.326E+02 -.175E-01   0.274E+01 0.276E+01 0.623E-01
   -.677E+01 -.639E+01 -.475E-01   0.598E+01 0.563E+01 -.160E-01   0.753E+00 0.700E+00 0.578E-01
   0.355E+02 0.353E+02 0.226E-01   -.325E+02 -.325E+02 -.192E-01   -.288E+01 -.278E+01 -.498E-02
   0.667E+01 0.693E+01 0.634E-01   -.589E+01 -.611E+01 -.592E-01   -.719E+00 -.766E+00 -.621E-02
   0.356E+02 -.353E+02 0.175E+00   -.327E+02 0.325E+02 -.598E-01   -.287E+01 0.272E+01 -.106E+00
   0.665E+01 -.675E+01 0.254E+00   -.595E+01 0.595E+01 -.117E+00   -.664E+00 0.740E+00 -.127E+00
 -----------------------------------------------------------------------------------------------
   0.217E+00 0.613E-01 -.687E-01   0.118E-12 0.338E-13 0.206E-13   -.132E+00 -.239E-01 0.488E-01
 
 
 POSITION                                       TOTAL-FORCE (eV/Angst)
 -----------------------------------------------------------------------------------
      8.25516      0.00471      8.34306        -1.788943      0.002682      0.008641
      8.33292      0.00471      4.16927        -0.026791     -0.017403      0.017137
      8.34230      4.17887      8.33821        -0.074634     -0.012173      0.035113
      8.34219      4.17396      4.16778        -0.100046      0.014361      0.016134
      4.27443      0.00369      0.00645         1.808080      0.002976     -0.027289
      4.18960      0.00338      4.17702         0.048525     -0.005880     -0.018687
      4.19252      4.17939      0.00186         0.045787     -0.019693     -0.009706
      4.18246      4.17412      4.17606         0.111336      0.006132     -0.022305
      0.00365      2.09004      2.07830        -0.259362      0.258218      0.287369
      0.00817      2.09254      6.25663        -0.265735      0.248875     -0.270556
      0.00033      6.26010      2.08304        -0.242711     -0.253317      0.279261
      0.00657      6.26478      6.25598        -0.268448     -0.273600     -0.252183
      4.17460      2.08928      2.08756         0.273171      0.254872      0.257434
      4.17991      2.09035      6.25913         0.256799      0.258213     -0.254757
      4.17603      6.25999      2.09403         0.259722     -0.251069      0.225030
      4.18268      6.26408      6.26200         0.234470     -0.261948     -0.265348
      2.08660      8.34487      2.18372         0.011883      0.017833      1.784709
      2.09257      0.00171      6.16377        -0.000315      0.014845     -1.804100
      2.08852      4.17348      2.09989         0.009210      0.013869      0.036562
      2.09569      4.17912      6.24147        -0.016627     -0.018625     -0.024845
      6.26210      0.00397      2.09922        -0.001897     -0.007364      0.053084
      6.26706      0.00678      6.24991        -0.022914     -0.019034     -0.073385
      6.26039      4.17319      2.09174         0.020904      0.017822      0.106036
      6.26550      4.17756      6.25166         0.003434     -0.002152     -0.107214
      2.09662      2.18840      8.34144        -0.020894      1.777644      0.012405
      2.08883      2.09842      4.17031         0.013051      0.075613      0.011880
      2.09414      6.16800      0.00157        -0.005718     -1.815736     -0.007780
      2.08784      6.24862      4.17327         0.013958     -0.053603     -0.003658
      6.26607      2.10670      8.34328        -0.013135      0.032880      0.010730
      6.26415      2.09415      4.17040        -0.011060      0.125425      0.010481
      6.26656      6.24981      0.00181        -0.016325     -0.046407     -0.007947
      6.26300      6.25661      4.17374         0.002128     -0.112042     -0.002666
      2.08706      0.00029      4.17318         0.022689      0.018380      0.002257
      2.09472      4.17770      8.34342        -0.008246     -0.000158      0.004499
      2.08983      4.17353      4.17159        -0.006050      0.014513     -0.004203
      6.26612      0.00513      0.00289        -0.018666     -0.006325     -0.022151
      6.26222      0.00528      4.17364         0.002064     -0.016719     -0.005109
      6.26599      4.17776      8.34405        -0.009338     -0.001440      0.001092
      6.26222      4.17362      4.17207         0.016507      0.018237     -0.001426
      2.08923      2.06644      2.06112         0.003594     -0.695646     -0.675965
      2.09572      2.06913      6.27844        -0.029302     -0.697092      0.686419
      2.08816      6.27935      2.06728         0.012465      0.716102     -0.696375
      2.09403      6.28366      6.28056        -0.014017      0.702094      0.690174
      6.26240      2.08404      2.07709         0.003574     -0.148895     -0.122217
      6.26546      2.08629      6.26454         0.011107     -0.154630      0.136668
      6.26052      6.26635      2.08084         0.016352      0.157227     -0.133245
      6.26663      6.26993      6.26694        -0.004023      0.143498      0.131122
      0.02234      0.00259      2.06275         0.706757      0.000891     -0.686905
      0.02700      0.00430      6.27801         0.685325      0.005166      0.700646
      0.00822      4.17493      2.07353         0.154587      0.001402     -0.103573
      0.01540      4.17903      6.26096         0.110358     -0.018856      0.145985
      4.15153      0.00148      2.06987        -0.660390      0.008999     -0.714228
      4.15831      0.00315      6.28485        -0.699331      0.007785      0.676892
      4.16752      4.17364      2.08482        -0.109849      0.016097     -0.174804
      4.17372      4.17778      6.26435        -0.140058     -0.005492      0.159995
      0.02905      2.07028      8.33957         0.680499     -0.695829      0.019999
      0.01014      2.08214      4.16747         0.140155     -0.124062      0.020559
      0.02793      6.28556      8.34369         0.690667      0.688614      0.002066
      0.00681      6.26905      4.16962         0.160656      0.127258      0.010641
      4.15995      2.06931      0.00076        -0.706763     -0.681839     -0.002364
      4.16978      2.08212      4.17355        -0.133940     -0.144213     -0.003449
      4.15949      6.28493      0.00468        -0.711701      0.680156     -0.017536
      4.17114      6.26906      4.17783        -0.142587      0.132560     -0.025044
 -----------------------------------------------------------------------------------
    total drift:                                0.043010      0.028424     -0.006833


--------------------------------------------------------------------------------------------------------



  FREE ENERGIE OF THE ION-ELECTRON SYSTEM (eV)
  ---------------------------------------------------
  free  energy   TOTEN  =      -494.70960964 eV

  energy  without entropy=     -494.70960964  energy(sigma->0) =     -494.70960964
 


--------------------------------------------------------------------------------------------------------


    POTLOK:  cpu time    3.4505: real time    3.4617


--------------------------------------------------------------------------------------------------------




--------------------------------------------------------------------------------------------------------


 writing wavefunctions
     LOOP+:  cpu time 2991.5912: real time 3001.6028
    4ORBIT:  cpu time    0.0000: real time    0.0000
 


 total charge     
 
# of ion       s       p       d       tot
------------------------------------------
    1        0.157   0.190   0.078   0.426
    2        0.144   0.182   0.078   0.404
    3        0.144   0.182   0.078   0.403
    4        0.143   0.182   0.078   0.403
    5        0.157   0.190   0.078   0.425
    6        0.144   0.182   0.078   0.403
    7        0.143   0.182   0.078   0.403
    8        0.143   0.183   0.078   0.404
    9        0.144   0.184   0.079   0.407
   10        0.144   0.184   0.079   0.407
   11        0.144   0.184   0.079   0.407
   12        0.144   0.184   0.079   0.407
   13        0.144   0.184   0.079   0.407
   14        0.144   0.184   0.079   0.407
   15        0.144   0.184   0.079   0.407
   16        0.144   0.184   0.079   0.407
   17        0.157   0.190   0.078   0.426
   18        0.157   0.190   0.078   0.425
   19        0.144   0.182   0.078   0.404
   20        0.144   0.182   0.078   0.404
   21        0.143   0.182   0.078   0.403
   22        0.143   0.182   0.078   0.403
   23        0.143   0.183   0.078   0.404
   24        0.143   0.183   0.078   0.404
   25        0.157   0.190   0.078   0.426
   26        0.143   0.182   0.078   0.403
   27        0.157   0.190   0.078   0.425
   28        0.143   0.182   0.078   0.403
   29        0.144   0.182   0.078   0.404
   30        0.143   0.183   0.078   0.404
   31        0.144   0.182   0.078   0.404
   32        0.143   0.182   0.078   0.403
   33        1.771   4.422   0.000   6.193
   34        1.771   4.422   0.000   6.193
   35        1.769   4.398   0.000   6.168
   36        1.771   4.422   0.000   6.193
   37        1.769   4.398   0.000   6.168
   38        1.769   4.398   0.000   6.167
   39        1.769   4.400   0.000   6.169
   40        1.771   4.376   0.000   6.147
   41        1.771   4.376   0.000   6.147
   42        1.771   4.376   0.000   6.148
   43        1.771   4.376   0.000   6.148
   44        1.769   4.395   0.000   6.163
   45        1.769   4.395   0.000   6.163
   46        1.769   4.394   0.000   6.163
   47        1.769   4.394   0.000   6.163
   48        1.771   4.377   0.000   6.148
   49        1.771   4.377   0.000   6.148
   50        1.769   4.394   0.000   6.163
   51        1.769   4.394   0.000   6.163
   52        1.771   4.376   0.000   6.147
   53        1.771   4.376   0.000   6.147
   54        1.769   4.395   0.000   6.163
   55        1.769   4.395   0.000   6.164
   56        1.771   4.377   0.000   6.148
   57        1.769   4.394   0.000   6.163
   58        1.771   4.376   0.000   6.148
   59        1.769   4.394   0.000   6.163
   60        1.771   4.376   0.000   6.148
   61        1.769   4.395   0.000   6.163
   62        1.771   4.376   0.000   6.147
   63        1.769   4.394   0.000   6.163
--------------------------------------------------
tot         59.544 142.006   2.502 204.052
 


 magnetization (x)
 
# of ion       s       p       d       tot
------------------------------------------
    1        0.000   0.000   0.000   0.000
    2        0.000   0.000   0.000   0.000
    3        0.000   0.000   0.000   0.000
    4        0.000   0.000  -0.000   0.000
    5        0.000   0.000   0.000   0.000
    6        0.000   0.000   0.000   0.000
    7        0.000   0.000   0.000   0.000
    8        0.000   0.000  -0.000   0.000
    9        0.000   0.000   0.000   0.000
   10        0.000   0.000   0.000   0.000
   11        0.000   0.000   0.000   0.000
   12        0.000   0.000   0.000   0.000
   13        0.000   0.000   0.000   0.000
   14        0.000   0.000   0.000   0.000
   15        0.000   0.000   0.000   0.000
   16        0.000   0.000   0.000   0.000
   17        0.000   0.000   0.000   0.000
   18        0.000   0.000   0.000   0.000
   19        0.000   0.000   0.000   0.000
   20        0.000   0.000   0.000   0.000
   21        0.000   0.000   0.000   0.000
   22        0.000   0.000   0.000   0.000
   23        0.000   0.000  -0.000   0.000
   24        0.000   0.000  -0.000   0.000
   25        0.000   0.000   0.000   0.000
   26        0.000   0.000   0.000   0.000
   27        0.000   0.000   0.000   0.000
   28        0.000   0.000   0.000   0.000
   29        0.000   0.000   0.000   0.000
   30        0.000   0.000  -0.000   0.000
   31        0.000   0.000   0.000   0.000
   32        0.000   0.000  -0.000   0.000
   33        0.000   0.000   0.000   0.000
   34        0.000   0.000   0.000   0.000
   35       -0.000  -0.000   0.000  -0.000
   36        0.000   0.000   0.000   0.000
   37       -0.000  -0.000   0.000  -0.000
   38       -0.000  -0.000   0.000  -0.000
   39        0.000  -0.000   0.000  -0.000
   40       -0.000  -0.000   0.000  -0.001
   41       -0.000  -0.000   0.000  -0.000
   42       -0.000  -0.000   0.000  -0.000
   43       -0.000  -0.000   0.000  -0.000
   44        0.000  -0.000   0.000  -0.000
   45        0.000  -0.000   0.000  -0.000
   46        0.000  -0.000   0.000  -0.000
   47        0.000  -0.000   0.000  -0.000
   48       -0.000  -0.000   0.000  -0.000
   49       -0.000  -0.000   0.000  -0.000
   50        0.000  -0.000   0.000  -0.000
   51        0.000  -0.000   0.000  -0.000
   52       -0.000  -0.000   0.000  -0.001
   53       -0.000  -0.000   0.000  -0.001
   54        0.000  -0.000   0.000  -0.000
   55        0.000  -0.000   0.000  -0.000
   56       -0.000  -0.000   0.000  -0.000
   57        0.000  -0.000   0.000  -0.000
   58       -0.000  -0.000   0.000  -0.001
   59        0.000  -0.000   0.000  -0.000
   60       -0.000  -0.000   0.000  -0.000
   61        0.000  -0.000   0.000  -0.000
   62       -0.000  -0.000   0.000  -0.000
   63        0.000  -0.000   0.000  -0.000
--------------------------------------------------
tot          0.001  -0.006   0.000  -0.005
 

 total amount of memory used by VASP MPI-rank0   135928. kBytes
=======================================================================

   base      :      30000. kBytes
   nonlr-proj:      27733. kBytes
   fftplans  :       3912. kBytes
   grid      :      17166. kBytes
   one-center:       1022. kBytes
   HF        :         67. kBytes
   wavefun   :      56028. kBytes
 
  
  
 General timing and accounting informations for this job:
 ========================================================
  
                  Total CPU time used (sec):     3023.594
                            User time (sec):     2996.913
                          System time (sec):       26.681
                         Elapsed time (sec):     3034.494
  
                   Maximum memory used (kb):      366692.
                   Average memory used (kb):           0.
  
                          Minor page faults:       411028
                          Major page faults:           14
                 Voluntary context switches:        35934
