PROCAR lm decomposed + phase
# of k-points:    1         # of bands:  162         # of ions:   64

 k-point     1 :    0.25000000 0.25000000 0.25000000     weight = 1.00000000

band     1 # energy  -14.04093861 # occ.  2.00000000
 
ion      s     py     pz     px    dxy    dyz    dz2    dxz  x2-y2    tot
    1  0.001  0.000  0.000  0.000  0.000  0.000  0.000  0.000  0.000  0.001
    2  0.001  0.000  0.000  0.000  0.000  0.000  0.000  0.000  0.000  0.001
    3  0.001  0.000  0.000  0.000  0.000  0.000  0.000  0.000  0.000  0.001
    4  0.001  0.000  0.000  0.000  0.000  0.000  0.000  0.000  0.000  0.001
    5  0.001  0.000  0.000  0.000  0.000  0.000  0.000  0.000  0.000  0.001
    6  0.001  0.000  0.000  0.000  0.000  0.000  0.000  0.000  0.000  0.001
    7  0.001  0.000  0.000  0.000  0.000  0.000  0.000  0.000  0.000  0.001
    8  0.001  0.000  0.000  0.000  0.000  0.000  0.000  0.000  0.000  0.001
    9  0.001  0.000  0.000  0.000  0.000  0.000  0.000  0.000  0.000  0.001
   10  0.001  0.000  0.000  0.000  0.000  0.000  0.000  0.000  0.000  0.001
   11  0.001  0.000  0.000  0.000  0.000  0.000  0.000  0.000  0.000  0.001
   12  0.001  0.000  0.000  0.000  0.000  0.000  0.000  0.000  0.000  0.001
   13  0.001  0.000  0.000  0.000  0.000  0.000  0.000  0.000  0.000  0.001
   14  0.001  0.000  0.000  0.000  0.000  0.000  0.000  0.000  0.000  0.001
   15  0.001  0.000  0.000  0.000  0.000  0.000  0.000  0.000  0.000  0.001
   16  0.001  0.000  0.000  0.000  0.000  0.000  0.000  0.000  0.000  0.001
   17  0.001  0.000  0.000  0.000  0.000  0.000  0.000  0.000  0.000  0.001
   18  0.001  0.000  0.000  0.000  0.000  0.000  0.000  0.000  0.000  0.001
   19  0.001  0.000  0.000  0.000  0.000  0.000  0.000  0.000  0.000  0.001
   20  0.001  0.000  0.000  0.000  0.000  0.000  0.000  0.000  0.000  0.001
   21  0.001  0.000  0.000  0.000  0.000  0.000  0.000  0.000  0.000  0.001
   22  0.001  0.000  0.000  0.000  0.000  0.000  0.000  0.000  0.000  0.001
   23  0.001  0.000  0.000  0.000  0.000  0.000  0.000  0.000  0.000  0.001
   24  0.001  0.000  0.000  0.000  0.000  0.000  0.000  0.000  0.000  0.001
   25  0.001  0.000  0.000  0.000  0.000  0.000  0.000  0.000  0.000  0.001
   26  0.001  0.000  0.000  0.000  0.000  0.000  0.000  0.000  0.000  0.001
   27  0.001  0.000  0.000  0.000  0.000  0.000  0.000  0.000  0.000  0.001
   28  0.001  0.000  0.000  0.000  0.000  0.000  0.000  0.000  0.000  0.001
   29  0.001  0.000  0.000  0.000  0.000  0.000  0.000  0.000  0.000  0.001
   30  0.001  0.000  0.000  0.000  0.000  0.000  0.000  0.000  0.000  0.001
   31  0.001  0.000  0.000  0.000  0.000  0.000  0.000  0.000  0.000  0.001
   32  0.001  0.000  0.000  0.000  0.000  0.000  0.000  0.000  0.000  0.001
   33  0.022  0.000  0.000  0.000  0.000  0.000  0.000  0.000  0.000  0.022
   34  0.022  0.000  0.000  0.000  0.000  0.000  0.000  0.000  0.000  0.022
   35  0.022  0.000  0.000  0.000  0.000  0.000  0.000  0.000  0.000  0.022
   36  0.022  0.000  0.000  0.000  0.000  0.000  0.000  0.000  0.000  0.022
   37  0.022  0.000  0.000  0.000  0.000  0.000  0.000  0.000  0.000  0.022
   38  0.022  0.000  0.000  0.000  0.000  0.000  0.000  0.000  0.000  0.022
   39  0.022  0.000  0.000  0.000  0.000  0.000  0.000  0.000  0.000  0.022
   40  0.022  0.000  0.000  0.000  0.000  0.000  0.000  0.000  0.000  0.022
   41  0.022  0.000  0.000  0.000  0.000  0.000  0.000  0.000  0.000  0.022
   42  0.022  0.000  0.000  0.000  0.000  0.000  0.000  0.000  0.000  0.022
   43  0.022  0.000  0.000  0.000  0.000  0.000  0.000  0.000  0.000  0.022
   44  0.022  0.000  0.000  0.000  0.000  0.000  0.000  0.000  0.000  0.022
   45  0.022  0.000  0.000  0.000  0.000  0.000  0.000  0.000  0.000  0.022
   46  0.022  0.000  0.000  0.000  0.000  0.000  0.000  0.000  0.000  0.022
   47  0.022  0.000  0.000  0.000  0.000  0.000  0.000  0.000  0.000  0.022
   48  0.022  0.000  0.000  0.000  0.000  0.000  0.000  0.000  0.000  0.022
   49  0.022  0.000  0.000  0.000  0.000  0.000  0.000  0.000  0.000  0.022
   50  0.022  0.000  0.000  0.000  0.000  0.000  0.000  0.000  0.000  0.022
   51  0.022  0.000  0.000  0.000  0.000  0.000  0.000  0.000  0.000  0.022
   52  0.022  0.000  0.000  0.000  0.000  0.000  0.000  0.000  0.000  0.022
   53  0.022  0.000  0.000  0.000  0.000  0.000  0.000  0.000  0.000  0.022
   54  0.022  0.000  0.000  0.000  0.000  0.000  0.000  0.000  0.000  0.022
   55  0.022  0.000  0.000  0.000  0.000  0.000  0.000  0.000  0.000  0.022
   56  0.022  0.000  0.000  0.000  0.000  0.000  0.000  0.000  0.000  0.022
   57  0.022  0.000  0.000  0.000  0.000  0.000  0.000  0.000  0.000  0.022
   58  0.022  0.000  0.000  0.000  0.000  0.000  0.000  0.000  0.000  0.022
   59  0.022  0.000  0.000  0.000  0.000  0.000  0.000  0.000  0.000  0.022
   60  0.022  0.000  0.000  0.000  0.000  0.000  0.000  0.000  0.000  0.022
   61  0.022  0.000  0.000  0.000  0.000  0.000  0.000  0.000  0.000  0.022
   62  0.022  0.000  0.000  0.000  0.000  0.000  0.000  0.000  0.000  0.022
   63  0.022  0.000  0.000  0.000  0.000  0.000  0.000  0.000  0.000  0.022
   64  0.022  0.000  0.000  0.000  0.000  0.000  0.000  0.000  0.000  0.022
tot    0.727  0.001  0.001  0.001  0.000  0.000  0.000  0.000  0.000  0.730
ion          s             py             pz             px             dxy            dyz            dz2            dxz          dx2-y2  
    1  0.029 -0.015   0.002  0.004   0.002  0.004   0.002  0.004  -0.000  0.000  -0.000  0.000   0.000 -0.000  -0.000  0.000  -0.000  0.000   0.001
    2  0.029 -0.015   0.002  0.004   0.002  0.004   0.002  0.004  -0.000  0.000  -0.000  0.000   0.000 -0.000  -0.000  0.000  -0.000  0.000   0.001
    3  0.029 -0.015   0.002  0.004   0.002  0.004   0.002  0.004  -0.000  0.000  -0.000  0.000   0.000 -0.000  -0.000  0.000  -0.000  0.000   0.001
    4  0.029 -0.015   0.002  0.004   0.002  0.004   0.002  0.004  -0.000  0.000  -0.000  0.000   0.000 -0.000  -0.000  0.000  -0.000  0.000   0.001
    5  0.029 -0.015   0.002  0.004   0.002  0.004   0.002  0.004  -0.000  0.000  -0.000  0.000   0.000 -0.000  -0.000  0.000  -0.000  0.000   0.001
    6  0.029 -0.015   0.002  0.004   0.002  0.004   0.002  0.004  -0.000  0.000  -0.000  0.000   0.000 -0.000  -0.000  0.000  -0.000  0.000   0.001
    7  0.029 -0.015   0.002  0.004   0.002  0.004   0.002  0.004  -0.000  0.000  -0.000  0.000   0.000 -0.000  -0.000  0.000  -0.000  0.000   0.001
    8  0.029 -0.015   0.002  0.004   0.002  0.004   0.002  0.004  -0.000  0.000  -0.000  0.000   0.000 -0.000  -0.000  0.000  -0.000  0.000   0.001
    9  0.029 -0.015   0.002  0.004   0.002  0.004   0.002  0.004  -0.000  0.000  -0.000  0.000   0.000 -0.000  -0.000  0.000  -0.000  0.000   0.001
   10  0.029 -0.015   0.002  0.004   0.002  0.004   0.002  0.004  -0.000  0.000  -0.000  0.000   0.000 -0.000  -0.000  0.000  -0.000  0.000   0.001
   11  0.029 -0.015   0.002  0.004   0.002  0.004   0.002  0.004  -0.000  0.000  -0.000  0.000   0.000 -0.000  -0.000  0.000  -0.000  0.000   0.001
   12  0.029 -0.015   0.002  0.004   0.002  0.004   0.002  0.004  -0.000  0.000  -0.000  0.000   0.000 -0.000  -0.000  0.000  -0.000  0.000   0.001
   13  0.029 -0.015   0.002  0.004   0.002  0.004   0.002  0.004  -0.000  0.000  -0.000  0.000   0.000 -0.000  -0.000  0.000  -0.000  0.000   0.001
   14  0.029 -0.015   0.002  0.004   0.002  0.004   0.002  0.004  -0.000  0.000  -0.000  0.000   0.000 -0.000  -0.000  0.000  -0.000  0.000   0.001
   15  0.029 -0.015   0.002  0.004   0.002  0.004   0.002  0.004  -0.000  0.000  -0.000  0.000   0.000 -0.000  -0.000  0.000  -0.000  0.000   0.001
   16  0.029 -0.015   0.002  0.004   0.002  0.004   0.002  0.004  -0.000  0.000  -0.000  0.000   0.000 -0.000  -0.000  0.000  -0.000  0.000   0.001
   17  0.029 -0.015   0.002  0.004   0.002  0.004   0.002  0.004  -0.000  0.000  -0.000  0.000   0.000 -0.000  -0.000  0.000   0.000 -0.000   0.001
   18  0.029 -0.015   0.002  0.004   0.002  0.004   0.002  0.004  -0.000  0.000  -0.000  0.000   0.000 -0.000  -0.000  0.000   0.000 -0.000   0.001
   19  0.029 -0.015   0.002  0.004   0.002  0.004   0.002  0.004  -0.000  0.000  -0.000  0.000   0.000 -0.000  -0.000  0.000   0.000 -0.000   0.001
   20  0.029 -0.015   0.002  0.004   0.002  0.004   0.002  0.004  -0.000  0.000  -0.000  0.000   0.000 -0.000  -0.000  0.000   0.000 -0.000   0.001
   21  0.029 -0.015   0.002  0.004   0.002  0.004   0.002  0.004  -0.000  0.000  -0.000  0.000   0.000 -0.000  -0.000  0.000   0.000 -0.000   0.001
   22  0.029 -0.015   0.002  0.004   0.002  0.004   0.002  0.004  -0.000  0.000  -0.000  0.000   0.000 -0.000  -0.000  0.000   0.000 -0.000   0.001
   23  0.029 -0.015   0.002  0.004   0.002  0.004   0.002  0.004  -0.000  0.000  -0.000  0.000   0.000 -0.000  -0.000  0.000   0.000 -0.000   0.001
   24  0.029 -0.015   0.002  0.004   0.002  0.004   0.002  0.004  -0.000  0.000  -0.000  0.000   0.000 -0.000  -0.000  0.000   0.000 -0.000   0.001
   25  0.029 -0.015   0.002  0.004   0.002  0.004   0.002  0.004  -0.000  0.000  -0.000  0.000  -0.000  0.000  -0.000  0.000  -0.000  0.000   0.001
   26  0.029 -0.015   0.002  0.004   0.002  0.004   0.002  0.004  -0.000  0.000  -0.000  0.000  -0.000  0.000  -0.000  0.000  -0.000  0.000   0.001
   27  0.029 -0.015   0.002  0.004   0.002  0.004   0.002  0.004  -0.000  0.000  -0.000  0.000  -0.000  0.000  -0.000  0.000  -0.000  0.000   0.001
   28  0.029 -0.015   0.002  0.004   0.002  0.004   0.002  0.004  -0.000  0.000  -0.000  0.000  -0.000  0.000  -0.000  0.000  -0.000  0.000   0.001
   29  0.029 -0.015   0.002  0.004   0.002  0.004   0.002  0.004  -0.000  0.000  -0.000  0.000  -0.000  0.000  -0.000  0.000  -0.000  0.000   0.001
   30  0.029 -0.015   0.002  0.004   0.002  0.004   0.002  0.004  -0.000  0.000  -0.000  0.000  -0.000  0.000  -0.000  0.000  -0.000  0.000   0.001
   31  0.029 -0.015   0.002  0.004   0.002  0.004   0.002  0.004  -0.000  0.000  -0.000  0.000  -0.000  0.000  -0.000  0.000  -0.000  0.000   0.001
   32  0.029 -0.015   0.002  0.004   0.002  0.004   0.002  0.004  -0.000  0.000  -0.000  0.000  -0.000  0.000  -0.000  0.000  -0.000  0.000   0.001
   33  0.128 -0.067   0.001  0.002   0.001  0.002   0.001  0.002   0.000  0.000   0.000  0.000   0.000  0.000   0.000  0.000   0.000  0.000   0.021
   34  0.128 -0.067   0.001  0.002   0.001  0.002   0.001  0.002   0.000  0.000   0.000  0.000   0.000  0.000   0.000  0.000   0.000  0.000   0.021
   35  0.128 -0.067   0.001  0.002   0.001  0.002   0.001  0.002   0.000  0.000   0.000  0.000   0.000  0.000   0.000  0.000   0.000  0.000   0.021
   36  0.128 -0.067   0.001  0.002   0.001  0.002   0.001  0.002   0.000  0.000   0.000  0.000   0.000  0.000   0.000  0.000   0.000  0.000   0.021
   37  0.128 -0.067   0.001  0.002   0.001  0.002   0.001  0.002   0.000  0.000   0.000  0.000   0.000  0.000   0.000  0.000   0.000  0.000   0.021
   38  0.128 -0.067   0.001  0.002   0.001  0.002   0.001  0.002   0.000  0.000   0.000  0.000   0.000  0.000   0.000  0.000   0.000  0.000   0.021
   39  0.128 -0.067   0.001  0.002   0.001  0.002   0.001  0.002   0.000  0.000   0.000  0.000   0.000  0.000   0.000  0.000   0.000  0.000   0.021
   40  0.128 -0.067   0.001  0.002   0.001  0.002   0.001  0.002   0.000  0.000   0.000  0.000   0.000  0.000   0.000  0.000   0.000  0.000   0.021
   41  0.128 -0.067   0.001  0.002   0.001  0.002   0.001  0.002   0.000  0.000   0.000  0.000   0.000  0.000   0.000  0.000   0.000  0.000   0.021
   42  0.128 -0.067   0.001  0.002   0.001  0.002   0.001  0.002   0.000  0.000   0.000  0.000   0.000  0.000   0.000  0.000   0.000  0.000   0.021
   43  0.128 -0.067   0.001  0.002   0.001  0.002   0.001  0.002   0.000  0.000   0.000  0.000   0.000  0.000   0.000  0.000   0.000  0.000   0.021
   44  0.128 -0.067   0.001  0.002   0.001  0.002   0.001  0.002   0.000  0.000   0.000  0.000   0.000  0.000   0.000  0.000   0.000  0.000   0.021
   45  0.128 -0.067   0.001  0.002   0.001  0.002   0.001  0.002   0.000  0.000   0.000  0.000   0.000  0.000   0.000  0.000   0.000  0.000   0.021
   46  0.128 -0.067   0.001  0.002   0.001  0.002   0.001  0.002   0.000  0.000   0.000  0.000   0.000  0.000   0.000  0.000   0.000  0.000   0.021
   47  0.128 -0.067   0.001  0.002   0.001  0.002   0.001  0.002   0.000  0.000   0.000  0.000   0.000  0.000   0.000  0.000   0.000  0.000   0.021
   48  0.128 -0.067   0.001  0.002   0.001  0.002   0.001  0.002   0.000  0.000   0.000  0.000   0.000  0.000   0.000  0.000   0.000  0.000   0.021
   49  0.128 -0.067   0.001  0.002   0.001  0.002   0.001  0.002   0.000  0.000   0.000  0.000   0.000  0.000   0.000  0.000   0.000  0.000   0.021
   50  0.128 -0.067   0.001  0.002   0.001  0.002   0.001  0.002   0.000  0.000   0.000  0.000   0.000  0.000   0.000  0.000   0.000  0.000   0.021
   51  0.128 -0.067   0.001  0.002   0.001  0.002   0.001  0.002   0.000  0.000   0.000  0.000   0.000  0.000   0.000  0.000   0.000  0.000   0.021
   52  0.128 -0.067   0.001  0.002   0.001  0.002   0.001  0.002   0.000  0.000   0.000  0.000   0.000  0.000   0.000  0.000   0.000  0.000   0.021
   53  0.128 -0.067   0.001  0.002   0.001  0.002   0.001  0.002   0.000  0.000   0.000  0.000   0.000  0.000   0.000  0.000   0.000  0.000   0.021
   54  0.128 -0.067   0.001  0.002   0.001  0.002   0.001  0.002   0.000  0.000   0.000  0.000   0.000  0.000   0.000  0.000   0.000  0.000   0.021
   55  0.128 -0.067   0.001  0.002   0.001  0.002   0.001  0.002   0.000  0.000   0.000  0.000   0.000  0.000   0.000  0.000   0.000  0.000   0.021
   56  0.128 -0.067   0.001  0.002   0.001  0.002   0.001  0.002   0.000  0.000   0.000  0.000   0.000  0.000   0.000  0.000   0.000  0.000   0.021
   57  0.128 -0.067   0.001  0.002   0.001  0.002   0.001  0.002   0.000  0.000   0.000  0.000   0.000  0.000   0.000  0.000   0.000  0.000   0.021
   58  0.128 -0.067   0.001  0.002   0.001  0.002   0.001  0.002   0.000  0.000   0.000  0.000   0.000  0.000   0.000  0.000   0.000  0.000   0.021
   59  0.128 -0.067   0.001  0.002   0.001  0.002   0.001  0.002   0.000  0.000   0.000  0.000   0.000  0.000   0.000  0.000   0.000  0.000   0.021
   60  0.128 -0.067   0.001  0.002   0.001  0.002   0.001  0.002   0.000  0.000   0.000  0.000   0.000  0.000   0.000  0.000   0.000  0.000   0.021
   61  0.128 -0.067   0.001  0.002   0.001  0.002   0.001  0.002   0.000  0.000   0.000  0.000   0.000  0.000   0.000  0.000   0.000  0.000   0.021
   62  0.128 -0.067   0.001  0.002   0.001  0.002   0.001  0.002   0.000  0.000   0.000  0.000   0.000  0.000   0.000  0.000   0.000  0.000   0.021
   63  0.128 -0.067   0.001  0.002   0.001  0.002   0.001  0.002   0.000  0.000   0.000  0.000   0.000  0.000   0.000  0.000   0.000  0.000   0.021
   64  0.128 -0.067   0.001  0.002   0.001  0.002   0.001  0.002   0.000  0.000   0.000  0.000   0.000  0.000   0.000  0.000   0.000  0.000   0.021
charge 0.702          0.001          0.001          0.001          0.000          0.000          0.000          0.000          0.000          0.704       
 
band     2 # energy  -13.66827259 # occ.  2.00000000
 
ion      s     py     pz     px    dxy    dyz    dz2    dxz  x2-y2    tot
    1  0.001  0.000  0.000  0.000  0.000  0.000  0.000  0.000  0.000  0.001
    2  0.001  0.000  0.000  0.000  0.000  0.000  0.000  0.000  0.000  0.001
    3  0.001  0.000  0.000  0.000  0.000  0.000  0.000  0.000  0.000  0.001
    4  0.001  0.000  0.000  0.000  0.000  0.000  0.000  0.000  0.000  0.001
    5  0.001  0.000  0.000  0.000  0.000  0.000  0.000  0.000  0.000  0.001
    6  0.001  0.000  0.000  0.000  0.000  0.000  0.000  0.000  0.000  0.001
    7  0.001  0.000  0.000  0.000  0.000  0.000  0.000  0.000  0.000  0.001
    8  0.001  0.000  0.000  0.000  0.000  0.000  0.000  0.000  0.000  0.001
    9  0.001  0.000  0.000  0.000  0.000  0.000  0.000  0.000  0.000  0.001
   10  0.001  0.000  0.000  0.000  0.000  0.000  0.000  0.000  0.000  0.001
   11  0.001  0.000  0.000  0.000  0.000  0.000  0.000  0.000  0.000  0.001
   12  0.001  0.000  0.000  0.000  0.000  0.000  0.000  0.000  0.000  0.001
   13  0.001  0.000  0.000  0.000  0.000  0.000  0.000  0.000  0.000  0.001
   14  0.001  0.000  0.000  0.000  0.000  0.000  0.000  0.000  0.000  0.001
   15  0.001  0.000  0.000  0.000  0.000  0.000  0.000  0.000  0.000  0.001
   16  0.001  0.000  0.000  0.000  0.000  0.000  0.000  0.000  0.000  0.001
   17  0.001  0.000  0.000  0.000  0.000  0.000  0.000  0.000  0.000  0.001
   18  0.001  0.000  0.000  0.000  0.000  0.000  0.000  0.000  0.000  0.001
   19  0.001  0.000  0.000  0.000  0.000  0.000  0.000  0.000  0.000  0.001
   20  0.001  0.000  0.000  0.000  0.000  0.000  0.000  0.000  0.000  0.001
   21  0.001  0.000  0.000  0.000  0.000  0.000  0.000  0.000  0.000  0.001
   22  0.001  0.000  0.000  0.000  0.000  0.000  0.000  0.000  0.000  0.001
   23  0.001  0.000  0.000  0.000  0.000  0.000  0.000  0.000  0.000  0.001
   24  0.001  0.000  0.000  0.000  0.000  0.000  0.000  0.000  0.000  0.001
   25  0.001  0.000  0.000  0.000  0.000  0.000  0.000  0.000  0.000  0.001
   26  0.001  0.000  0.000  0.000  0.000  0.000  0.000  0.000  0.000  0.001
   27  0.001  0.000  0.000  0.000  0.000  0.000  0.000  0.000  0.000  0.001
   28  0.001  0.000  0.000  0.000  0.000  0.000  0.000  0.000  0.000  0.001
   29  0.001  0.000  0.000  0.000  0.000  0.000  0.000  0.000  0.000  0.001
   30  0.001  0.000  0.000  0.000  0.000  0.000  0.000  0.000  0.000  0.001
   31  0.001  0.000  0.000  0.000  0.000  0.000  0.000  0.000  0.000  0.001
   32  0.001  0.000  0.000  0.000  0.000  0.000  0.000  0.000  0.000  0.001
   33  0.022  0.000  0.000  0.000  0.000  0.000  0.000  0.000  0.000  0.022
   34  0.022  0.000  0.000  0.000  0.000  0.000  0.000  0.000  0.000  0.022
   35  0.022  0.000  0.000  0.000  0.000  0.000  0.000  0.000  0.000  0.022
   36  0.022  0.000  0.000  0.000  0.000  0.000  0.000  0.000  0.000  0.022
   37  0.022  0.000  0.000  0.000  0.000  0.000  0.000  0.000  0.000  0.022
   38  0.022  0.000  0.000  0.000  0.000  0.000  0.000  0.000  0.000  0.022
   39  0.022  0.000  0.000  0.000  0.000  0.000  0.000  0.000  0.000  0.022
   40  0.022  0.000  0.000  0.000  0.000  0.000  0.000  0.000  0.000  0.022
   41  0.022  0.000  0.000  0.000  0.000  0.000  0.000  0.000  0.000  0.022
   42  0.022  0.000  0.000  0.000  0.000  0.000  0.000  0.000  0.000  0.022
   43  0.022  0.000  0.000  0.000  0.000  0.000  0.000  0.000  0.000  0.022
   44  0.022  0.000  0.000  0.000  0.000  0.000  0.000  0.000  0.000  0.022
   45  0.022  0.000  0.000  0.000  0.000  0.000  0.000  0.000  0.000  0.022
   46  0.022  0.000  0.000  0.000  0.000  0.000  0.000  0.000  0.000  0.022
   47  0.022  0.000  0.000  0.000  0.000  0.000  0.000  0.000  0.000  0.022
   48  0.022  0.000  0.000  0.000  0.000  0.000  0.000  0.000  0.000  0.022
   49  0.022  0.000  0.000  0.000  0.000  0.000  0.000  0.000  0.000  0.022
   50  0.022  0.000  0.000  0.000  0.000  0.000  0.000  0.000  0.000  0.022
   51  0.022  0.000  0.000  0.000  0.000  0.000  0.000  0.000  0.000  0.022
   52  0.022  0.000  0.000  0.000  0.000  0.000  0.000  0.000  0.000  0.022
   53  0.022  0.000  0.000  0.000  0.000  0.000  0.000  0.000  0.000  0.022
   54  0.022  0.000  0.000  0.000  0.000  0.000  0.000  0.000  0.000  0.022
   55  0.022  0.000  0.000  0.000  0.000  0.000  0.000  0.000  0.000  0.022
   56  0.022  0.000  0.000  0.000  0.000  0.000  0.000  0.000  0.000  0.022
   57  0.022  0.000  0.000  0.000  0.000  0.000  0.000  0.000  0.000  0.022
   58  0.022  0.000  0.000  0.000  0.000  0.000  0.000  0.000  0.000  0.022
   59  0.022  0.000  0.000  0.000  0.000  0.000  0.000  0.000  0.000  0.022
   60  0.022  0.000  0.000  0.000  0.000  0.000  0.000  0.000  0.000  0.022
   61  0.022  0.000  0.000  0.000  0.000  0.000  0.000  0.000  0.000  0.022
   62  0.022  0.000  0.000  0.000  0.000  0.000  0.000  0.000  0.000  0.022
   63  0.022  0.000  0.000  0.000  0.000  0.000  0.000  0.000  0.000  0.022
   64  0.022  0.000  0.000  0.000  0.000  0.000  0.000  0.000  0.000  0.022
tot    0.739  0.001  0.001  0.006  0.000  0.000  0.000  0.000  0.000  0.748
ion          s             py             pz             px             dxy            dyz            dz2            dxz          dx2-y2  
    1 -0.024 -0.013   0.002 -0.004   0.002 -0.004  -0.006  0.011  -0.000 -0.000   0.000  0.000  -0.002 -0.001  -0.000 -0.000   0.003  0.002   0.001
    2 -0.024 -0.013   0.002 -0.004   0.002 -0.004  -0.006  0.011  -0.000 -0.000   0.000  0.000  -0.002 -0.001  -0.000 -0.000   0.003  0.002   0.001
    3 -0.024 -0.013   0.002 -0.004   0.002 -0.004  -0.006  0.011  -0.000 -0.000   0.000  0.000  -0.002 -0.001  -0.000 -0.000   0.003  0.002   0.001
    4 -0.024 -0.013   0.002 -0.004   0.002 -0.004  -0.006  0.011  -0.000 -0.000   0.000  0.000  -0.002 -0.001  -0.000 -0.000   0.003  0.002   0.001
    5  0.024  0.013  -0.002  0.004  -0.002  0.004   0.006 -0.011   0.000  0.000  -0.000 -0.000   0.002  0.001   0.000  0.000  -0.003 -0.002   0.001
    6  0.024  0.013  -0.002  0.004  -0.002  0.004   0.006 -0.011   0.000  0.000  -0.000 -0.000   0.002  0.001   0.000  0.000  -0.003 -0.002   0.001
    7  0.024  0.013  -0.002  0.004  -0.002  0.004   0.006 -0.011   0.000  0.000  -0.000 -0.000   0.002  0.001   0.000  0.000  -0.003 -0.002   0.001
    8  0.024  0.013  -0.002  0.004  -0.002  0.004   0.006 -0.011   0.000  0.000  -0.000 -0.000   0.002  0.001   0.000  0.000  -0.003 -0.002   0.001
    9 -0.024 -0.013   0.002 -0.004   0.002 -0.004  -0.006  0.011  -0.000 -0.000   0.000  0.000  -0.002 -0.001  -0.000 -0.000   0.003  0.002   0.001
   10 -0.024 -0.013   0.002 -0.004   0.002 -0.004  -0.006  0.011  -0.000 -0.000   0.000  0.000  -0.002 -0.001  -0.000 -0.000   0.003  0.002   0.001
   11 -0.024 -0.013   0.002 -0.004   0.002 -0.004  -0.006  0.011  -0.000 -0.000   0.000  0.000  -0.002 -0.001  -0.000 -0.000   0.003  0.002   0.001
   12 -0.024 -0.013   0.002 -0.004   0.002 -0.004  -0.006  0.011  -0.000 -0.000   0.000  0.000  -0.002 -0.001  -0.000 -0.000   0.003  0.002   0.001
   13  0.024  0.013  -0.002  0.004  -0.002  0.004   0.006 -0.011   0.000  0.000  -0.000 -0.000   0.002  0.001   0.000  0.000  -0.003 -0.002   0.001
   14  0.024  0.013  -0.002  0.004  -0.002  0.004   0.006 -0.011   0.000  0.000  -0.000 -0.000   0.002  0.001   0.000  0.000  -0.003 -0.002   0.001
   15  0.024  0.013  -0.002  0.004  -0.002  0.004   0.006 -0.011   0.000  0.000  -0.000 -0.000   0.002  0.001   0.000  0.000  -0.003 -0.002   0.001
   16  0.024  0.013  -0.002  0.004  -0.002  0.004   0.006 -0.011   0.000  0.000  -0.000 -0.000   0.002  0.001   0.000  0.000  -0.003 -0.002   0.001
   17 -0.013  0.024  -0.004 -0.002  -0.004 -0.002   0.011  0.006  -0.000  0.000   0.000 -0.000  -0.001  0.002  -0.000  0.000   0.002 -0.003   0.001
   18 -0.013  0.024  -0.004 -0.002  -0.004 -0.002   0.011  0.006  -0.000  0.000   0.000 -0.000  -0.001  0.002  -0.000  0.000   0.002 -0.003   0.001
   19 -0.013  0.024  -0.004 -0.002  -0.004 -0.002   0.011  0.006  -0.000  0.000   0.000 -0.000  -0.001  0.002  -0.000  0.000   0.002 -0.003   0.001
   20 -0.013  0.024  -0.004 -0.002  -0.004 -0.002   0.011  0.006  -0.000  0.000   0.000 -0.000  -0.001  0.002  -0.000  0.000   0.002 -0.003   0.001
   21  0.013 -0.024   0.004  0.002   0.004  0.002  -0.011 -0.006   0.000 -0.000  -0.000  0.000   0.001 -0.002   0.000 -0.000  -0.002  0.003   0.001
   22  0.013 -0.024   0.004  0.002   0.004  0.002  -0.011 -0.006   0.000 -0.000  -0.000  0.000   0.001 -0.002   0.000 -0.000  -0.002  0.003   0.001
   23  0.013 -0.024   0.004  0.002   0.004  0.002  -0.011 -0.006   0.000 -0.000  -0.000  0.000   0.001 -0.002   0.000 -0.000  -0.002  0.003   0.001
   24  0.013 -0.024   0.004  0.002   0.004  0.002  -0.011 -0.006   0.000 -0.000  -0.000  0.000   0.001 -0.002   0.000 -0.000  -0.002  0.003   0.001
   25 -0.013  0.024  -0.004 -0.002  -0.004 -0.002   0.011  0.006  -0.000  0.000   0.000 -0.000  -0.001  0.002  -0.000  0.000   0.002 -0.003   0.001
   26 -0.013  0.024  -0.004 -0.002  -0.004 -0.002   0.011  0.006  -0.000  0.000   0.000 -0.000  -0.001  0.002  -0.000  0.000   0.002 -0.003   0.001
   27 -0.013  0.024  -0.004 -0.002  -0.004 -0.002   0.011  0.006  -0.000  0.000   0.000 -0.000  -0.001  0.002  -0.000  0.000   0.002 -0.003   0.001
   28 -0.013  0.024  -0.004 -0.002  -0.004 -0.002   0.011  0.006  -0.000  0.000   0.000 -0.000  -0.001  0.002  -0.000  0.000   0.002 -0.003   0.001
   29  0.013 -0.024   0.004  0.002   0.004  0.002  -0.011 -0.006   0.000 -0.000  -0.000  0.000   0.001 -0.002   0.000 -0.000  -0.002  0.003   0.001
   30  0.013 -0.024   0.004  0.002   0.004  0.002  -0.011 -0.006   0.000 -0.000  -0.000  0.000   0.001 -0.002   0.000 -0.000  -0.002  0.003   0.001
   31  0.013 -0.024   0.004  0.002   0.004  0.002  -0.011 -0.006   0.000 -0.000  -0.000  0.000   0.001 -0.002   0.000 -0.000  -0.002  0.003   0.001
   32  0.013 -0.024   0.004  0.002   0.004  0.002  -0.011 -0.006   0.000 -0.000  -0.000  0.000   0.001 -0.002   0.000 -0.000  -0.002  0.003   0.001
   33 -0.069  0.130  -0.001 -0.001  -0.001 -0.001   0.004  0.002   0.000  0.000   0.000  0.000   0.000  0.000   0.000  0.000   0.000  0.000   0.022
   34 -0.069  0.130  -0.001 -0.001  -0.001 -0.001   0.004  0.002   0.000  0.000   0.000  0.000   0.000  0.000   0.000  0.000   0.000  0.000   0.022
   35 -0.069  0.130  -0.001 -0.001  -0.001 -0.001   0.004  0.002   0.000  0.000   0.000  0.000   0.000  0.000   0.000  0.000   0.000  0.000   0.022
   36 -0.069  0.130  -0.001 -0.001  -0.001 -0.001   0.004  0.002   0.000  0.000   0.000  0.000   0.000  0.000   0.000  0.000   0.000  0.000   0.022
   37  0.069 -0.130   0.001  0.001   0.001  0.001  -0.004 -0.002   0.000  0.000   0.000  0.000   0.000  0.000   0.000  0.000   0.000  0.000   0.022
   38  0.069 -0.130   0.001  0.001   0.001  0.001  -0.004 -0.002   0.000  0.000   0.000  0.000   0.000  0.000   0.000  0.000   0.000  0.000   0.022
   39  0.069 -0.130   0.001  0.001   0.001  0.001  -0.004 -0.002   0.000  0.000   0.000  0.000   0.000  0.000   0.000  0.000   0.000  0.000   0.022
   40  0.069 -0.130   0.001  0.001   0.001  0.001  -0.004 -0.002   0.000  0.000   0.000  0.000   0.000  0.000   0.000  0.000   0.000  0.000   0.022
   41 -0.069  0.130  -0.001 -0.001  -0.001 -0.001   0.004  0.002   0.000  0.000   0.000  0.000   0.000  0.000   0.000  0.000   0.000  0.000   0.022
   42 -0.069  0.130  -0.001 -0.001  -0.001 -0.001   0.004  0.002   0.000  0.000   0.000  0.000   0.000  0.000   0.000  0.000   0.000  0.000   0.022
   43 -0.069  0.130  -0.001 -0.001  -0.001 -0.001   0.004  0.002   0.000  0.000   0.000  0.000   0.000  0.000   0.000  0.000   0.000  0.000   0.022
   44 -0.069  0.130  -0.001 -0.001  -0.001 -0.001   0.004  0.002   0.000  0.000   0.000  0.000   0.000  0.000   0.000  0.000   0.000  0.000   0.022
   45  0.069 -0.130   0.001  0.001   0.001  0.001  -0.004 -0.002   0.000  0.000   0.000  0.000   0.000  0.000   0.000  0.000   0.000  0.000   0.022
   46  0.069 -0.130   0.001  0.001   0.001  0.001  -0.004 -0.002   0.000  0.000   0.000  0.000   0.000  0.000   0.000  0.000   0.000  0.000   0.022
   47  0.069 -0.130   0.001  0.001   0.001  0.001  -0.004 -0.002   0.000  0.000   0.000  0.000   0.000  0.000   0.000  0.000   0.000  0.000   0.022
   48  0.069 -0.130   0.001  0.001   0.001  0.001  -0.004 -0.002   0.000  0.000   0.000  0.000   0.000  0.000   0.000  0.000   0.000  0.000   0.022
   49 -0.130 -0.069   0.001 -0.001   0.001 -0.001  -0.002  0.004   0.000  0.000   0.000  0.000   0.000  0.000   0.000  0.000   0.000  0.000   0.022
   50 -0.130 -0.069   0.001 -0.001   0.001 -0.001  -0.002  0.004   0.000  0.000   0.000  0.000   0.000  0.000   0.000  0.000   0.000  0.000   0.022
   51 -0.130 -0.069   0.001 -0.001   0.001 -0.001  -0.002  0.004   0.000  0.000   0.000  0.000   0.000  0.000   0.000  0.000   0.000  0.000   0.022
   52 -0.130 -0.069   0.001 -0.001   0.001 -0.001  -0.002  0.004   0.000  0.000   0.000  0.000   0.000  0.000   0.000  0.000   0.000  0.000   0.022
   53  0.130  0.069  -0.001  0.001  -0.001  0.001   0.002 -0.004   0.000  0.000   0.000  0.000   0.000  0.000   0.000  0.000   0.000  0.000   0.022
   54  0.130  0.069  -0.001  0.001  -0.001  0.001   0.002 -0.004   0.000  0.000   0.000  0.000   0.000  0.000   0.000  0.000   0.000  0.000   0.022
   55  0.130  0.069  -0.001  0.001  -0.001  0.001   0.002 -0.004   0.000  0.000   0.000  0.000   0.000  0.000   0.000  0.000   0.000  0.000   0.022
   56  0.130  0.069  -0.001  0.001  -0.001  0.001   0.002 -0.004   0.000  0.000   0.000  0.000   0.000  0.000   0.000  0.000   0.000  0.000   0.022
   57 -0.130 -0.069   0.001 -0.001   0.001 -0.001  -0.002  0.004   0.000  0.000   0.000  0.000   0.000  0.000   0.000  0.000   0.000  0.000   0.022
   58 -0.130 -0.069   0.001 -0.001   0.001 -0.001  -0.002  0.004   0.000  0.000   0.000  0.000   0.000  0.000   0.000  0.000   0.000  0.000   0.022
   59 -0.130 -0.069   0.001 -0.001   0.001 -0.001  -0.002  0.004   0.000  0.000   0.000  0.000   0.000  0.000   0.000  0.000   0.000  0.000   0.022
   60 -0.130 -0.069   0.001 -0.001   0.001 -0.001  -0.002  0.004   0.000  0.000   0.000  0.000   0.000  0.000   0.000  0.000   0.000  0.000   0.022
   61  0.130  0.069  -0.001  0.001  -0.001  0.001   0.002 -0.004   0.000  0.000   0.000  0.000   0.000  0.000   0.000  0.000   0.000  0.000   0.022
   62  0.130  0.069  -0.001  0.001  -0.001  0.001   0.002 -0.004   0.000  0.000   0.000  0.000   0.000  0.000   0.000  0.000   0.000  0.000   0.022
   63  0.130  0.069  -0.001  0.001  -0.001  0.001   0.002 -0.004   0.000  0.000   0.000  0.000   0.000  0.000   0.000  0.000   0.000  0.000   0.022
   64  0.130  0.069  -0.001  0.001  -0.001  0.001   0.002 -0.004   0.000  0.000   0.000  0.000   0.000  0.000   0.000  0.000   0.000  0.000   0.022
charge 0.715          0.001          0.001          0.006          0.000          0.000          0.000          0.000          0.000          0.723       
 
band     3 # energy  -13.66827259 # occ.  2.00000000
 
ion      s     py     pz     px    dxy    dyz    dz2    dxz  x2-y2    tot