<?xml version="1.0" encoding="ISO-8859-1"?>
<modeling>
 <generator>
  <i name="program" type="string">vasp </i>
  <i name="version" type="string">5.4.4.18Apr17-6-g9f103f2a35  </i>
  <i name="subversion" type="string">(build Apr 25 2017 10:43:04) complex            parallel </i>
  <i name="platform" type="string">LinuxIFC </i>
  <i name="date" type="string">2019 04 10 </i>
  <i name="time" type="string">13:21:06 </i>
 </generator>
 <incar>
  <i type="string" name="PREC">n</i>
  <i type="string" name="ALGO">  Normal</i>
  <i type="int" name="NELM">   100</i>
  <i type="int" name="NELMIN">     2</i>
  <i type="int" name="IBRION">     2</i>
  <i name="EDIFF">      0.00000100</i>
  <i name="EDIFFG">     -0.04000000</i>
  <i type="int" name="NSW">    50</i>
  <i type="int" name="ISIF">     2</i>
  <i type="string" name="LREAL">  Auto</i>
  <i type="int" name="ISMEAR">     0</i>
  <i name="SIGMA">      0.10000000</i>
  <i type="logical" name="LWAVE"> F  </i>
  <i type="logical" name="LCHARG"> F  </i>
  <i type="int" name="LORBIT">    12</i>
  <i type="logical" name="LASPH"> T  </i>
  <v type="int" name="KPOINT_BSE">    -1     0     0     0</v>
  <i type="int" name="NELM">   100</i>
  <i type="string" name="GGA">  Ps</i>
  <i type="logical" name="LASPH"> T  </i>
 </incar>
 <structure name="primitive_cell" >
  <crystal>
   <varray name="basis" >
    <v>       2.12344650       2.12344650       0.00000000 </v>
    <v>       2.12344650       0.00000000      -2.12344650 </v>
    <v>       0.00000000       2.12344650      -2.12344650 </v>
   </varray>
   <i name="volume">     19.14934687 </i>
   <varray name="rec_basis" >
    <v>       0.23546626       0.23546626       0.23546626 </v>
    <v>       0.23546626      -0.23546626      -0.23546626 </v>
    <v>      -0.23546626       0.23546626      -0.23546626 </v>
   </varray>
  </crystal>
  <varray name="positions" >
   <v>       0.00000000       0.00000000       0.00000000 </v>
   <v>      -0.50000000      -0.50000000      -0.50000000 </v>
  </varray>
 </structure>
 <varray name="primitive_index" >
  <v type="int" >        1 </v>
  <v type="int" >       33 </v>
 </varray>
 <kpoints>
  <generation param="Gamma">
   <v type="int" name="divisions">       2        2        2 </v>
   <v name="usershift">      0.50000000       0.50000000       0.50000000 </v>
   <v name="genvec1">      0.50000000       0.00000000       0.00000000 </v>
   <v name="genvec2">      0.00000000       0.50000000       0.00000000 </v>
   <v name="genvec3">      0.00000000       0.00000000       0.50000000 </v>
   <v name="shift">      0.50000000       0.50000000       0.50000000 </v>
  </generation>
  <varray name="kpointlist" >
   <v>       0.25000000       0.25000000       0.25000000 </v>
  </varray>
  <varray name="weights" >
   <v>       1.00000000 </v>
  </varray>
 </kpoints>
 <parameters>
  <separator name="general" >
   <i type="string" name="SYSTEM">unknown system</i>
   <i type="logical" name="LCOMPAT"> F  </i>
  </separator>
  <separator name="electronic" >
   <i type="string" name="PREC">n</i>
   <i name="ENMAX">    400.00000000</i>
   <i name="ENAUG">    605.39200000</i>
   <i name="EDIFF">      0.00000100</i>
   <i type="int" name="IALGO">    38</i>
   <i type="int" name="IWAVPR">    11</i>
   <i type="int" name="NBANDS">   162</i>
   <i name="NELECT">    256.00000000</i>
   <i type="int" name="TURBO">     0</i>
   <i type="int" name="IRESTART">     0</i>
   <i type="int" name="NREBOOT">     0</i>
   <i type="int" name="NMIN">     0</i>
   <i name="EREF">      0.00000000</i>
   <separator name="electronic smearing" >
    <i type="int" name="ISMEAR">     0</i>
    <i name="SIGMA">      0.10000000</i>
    <i name="KSPACING">      0.50000000</i>
    <i type="logical" name="KGAMMA"> T  </i>
   </separator>
   <separator name="electronic projectors" >
    <i type="logical" name="LREAL"> T  </i>
    <v name="ROPT">     -0.00050000     -0.00050000</v>
    <i type="int" name="LMAXPAW">  -100</i>
    <i type="int" name="LMAXMIX">     2</i>
    <i type="logical" name="NLSPLINE"> F  </i>
   </separator>
   <separator name="electronic startup" >
    <i type="int" name="ISTART">     0</i>
    <i type="int" name="ICHARG">     2</i>
    <i type="int" name="INIWAV">     1</i>
   </separator>
   <separator name="electronic spin" >
    <i type="int" name="ISPIN">     1</i>
    <i type="logical" name="LNONCOLLINEAR"> F  </i>
    <v name="MAGMOM">      1.00000000      1.00000000      1.00000000      1.00000000      1.00000000      1.00000000      1.00000000      1.00000000      1.00000000      1.00000000      1.00000000      1.00000000      1.00000000      1.00000000      1.00000000      1.00000000      1.00000000      1.00000000      1.00000000      1.00000000
      1.00000000      1.00000000      1.00000000      1.00000000      1.00000000      1.00000000      1.00000000      1.00000000      1.00000000      1.00000000      1.00000000      1.00000000      1.00000000      1.00000000      1.00000000      1.00000000      1.00000000      1.00000000      1.00000000      1.00000000
      1.00000000      1.00000000      1.00000000      1.00000000      1.00000000      1.00000000      1.00000000      1.00000000      1.00000000      1.00000000      1.00000000      1.00000000      1.00000000      1.00000000      1.00000000      1.00000000      1.00000000      1.00000000      1.00000000      1.00000000
      1.00000000      1.00000000      1.00000000      1.00000000</v>
    <i name="NUPDOWN">     -1.00000000</i>
    <i type="logical" name="LSORBIT"> F  </i>
    <v name="SAXIS">      0.00000000      0.00000000      1.00000000</v>
    <i type="logical" name="LSPIRAL"> F  </i>
    <v name="QSPIRAL">      0.00000000      0.00000000      0.00000000</v>
    <i type="logical" name="LZEROZ"> F  </i>
   </separator>
   <separator name="electronic exchange-correlation" >
    <i type="logical" name="LASPH"> T  </i>
    <i type="logical" name="LMETAGGA"> F  </i>
   </separator>
   <separator name="electronic convergence" >
    <i type="int" name="NELM">   100</i>
    <i type="int" name="NELMDL">    -5</i>
    <i type="int" name="NELMIN">     2</i>
    <i name="ENINI">    400.00000000</i>
    <separator name="electronic convergence detail" >
     <i type="logical" name="LDIAG"> T  </i>
     <i type="logical" name="LSUBROT"> F  </i>
     <i name="WEIMIN">      0.00100000</i>
     <i name="EBREAK">      0.00000000</i>
     <i name="DEPER">      0.30000000</i>
     <i type="int" name="NRMM">     4</i>
     <i name="TIME">      0.40000000</i>
    </separator>
   </separator>
   <separator name="electronic mixer" >
    <i name="AMIX">      0.40000000</i>
    <i name="BMIX">      1.00000000</i>
    <i name="AMIN">      0.10000000</i>
    <i name="AMIX_MAG">      1.60000000</i>
    <i name="BMIX_MAG">      1.00000000</i>
    <separator name="electronic mixer details" >
     <i type="int" name="IMIX">     4</i>
     <i type="logical" name="MIXFIRST"> F  </i>
     <i type="int" name="MAXMIX">   -45</i>
     <i name="WC">    100.00000000</i>
     <i type="int" name="INIMIX">     1</i>
     <i type="int" name="MIXPRE">     1</i>
     <i type="int" name="MREMOVE">     5</i>
    </separator>
   </separator>
   <separator name="electronic dipolcorrection" >
    <i type="logical" name="LDIPOL"> F  </i>
    <i type="logical" name="LMONO"> F  </i>
    <i type="int" name="IDIPOL">     0</i>
    <i name="EPSILON">      1.00000000</i>
    <v name="DIPOL">   -100.00000000   -100.00000000   -100.00000000</v>
    <i name="EFIELD">      0.00000000</i>
   </separator>
  </separator>
  <separator name="grids" >
   <i type="int" name="NGX">    42</i>
   <i type="int" name="NGY">    42</i>
   <i type="int" name="NGZ">    42</i>
   <i type="int" name="NGXF">    84</i>
   <i type="int" name="NGYF">    84</i>
   <i type="int" name="NGZF">    84</i>
   <i type="logical" name="ADDGRID"> F  </i>
  </separator>
  <separator name="ionic" >
   <i type="int" name="NSW">    50</i>
   <i type="int" name="IBRION">     2</i>
   <i type="int" name="MDALGO">     0</i>
   <i type="int" name="ISIF">     2</i>
   <i name="PSTRESS">      0.00000000</i>
   <i name="EDIFFG">     -0.04000000</i>
   <i type="int" name="NFREE">     1</i>
   <i name="POTIM">      0.50000000</i>
   <i name="SMASS">     -3.00000000</i>
   <i name="SCALEE">      1.00000000</i>
  </separator>
  <separator name="ionic md" >
   <i name="TEBEG">      0.00010000</i>
   <i name="TEEND">      0.00010000</i>
   <i type="int" name="NBLOCK">     1</i>
   <i type="int" name="KBLOCK">    50</i>
   <i type="int" name="NPACO">   256</i>
   <i name="APACO">     16.00000000</i>
  </separator>
  <separator name="symmetry" >
   <i type="int" name="ISYM">     2</i>
   <i name="SYMPREC">      0.00001000</i>
  </separator>
  <separator name="dos" >
   <i type="int" name="LORBIT">    12</i>
   <v name="RWIGS">     -1.00000000     -1.00000000</v>
   <i type="int" name="NEDOS">   301</i>
   <i name="EMIN">     10.00000000</i>
   <i name="EMAX">    -10.00000000</i>
   <i name="EFERMI">      0.00000000</i>
  </separator>
  <separator name="writing" >
   <i type="int" name="NWRITE">     2</i>
   <i type="logical" name="LWAVE"> F  </i>
   <i type="logical" name="LDOWNSAMPLE"> F  </i>
   <i type="logical" name="LCHARG"> F  </i>
   <i type="logical" name="LPARD"> F  </i>
   <i type="logical" name="LVTOT"> F  </i>
   <i type="logical" name="LVHAR"> F  </i>
   <i type="logical" name="LELF"> F  </i>
   <i type="logical" name="LOPTICS"> F  </i>
   <v name="STM">      0.00000000      0.00000000      0.00000000      0.00000000      0.00000000      0.00000000      0.00000000</v>
  </separator>
  <separator name="performance" >
   <i type="int" name="NPAR">    18</i>
   <i type="int" name="NSIM">     4</i>
   <i type="int" name="NBLK">    -1</i>
   <i type="logical" name="LPLANE"> T  </i>
   <i type="logical" name="LSCALAPACK"> T  </i>
   <i type="logical" name="LSCAAWARE"> F  </i>
   <i type="logical" name="LSCALU"> F  </i>
   <i type="logical" name="LASYNC"> F  </i>
   <i type="logical" name="LORBITALREAL"> F  </i>
  </separator>
  <separator name="miscellaneous" >
   <i type="int" name="IDIOT">     3</i>
   <i type="int" name="ISPECIAL">     0</i>
   <i type="logical" name="LMUSIC"> F  </i>
   <v name="POMASS">     24.30500000     16.00000000</v>
   <v name="DARWINR">      0.00000000      0.00000000</v>
   <v name="DARWINV">      1.00000000      1.00000000</v>
   <i type="logical" name="LCORR"> T  </i>
  </separator>
  <i type="logical" name="GGA_COMPAT"> T  </i>
  <i type="logical" name="LBERRY"> F  </i>
  <i type="int" name="ICORELEVEL">     0</i>
  <i type="logical" name="LDAU"> F  </i>
  <i type="int" name="I_CONSTRAINED_M">     0</i>
  <separator name="electronic exchange-correlation" >
   <i type="string" name="GGA">PS</i>
   <i type="int" name="VOSKOWN">     0</i>
   <i type="logical" name="LHFCALC"> F  </i>
   <i type="string" name="PRECFOCK"></i>
   <i type="logical" name="LSYMGRAD"> F  </i>
   <i type="logical" name="LHFONE"> F  </i>
   <i type="logical" name="LRHFCALC"> F  </i>
   <i type="logical" name="LTHOMAS"> F  </i>
   <i type="logical" name="LMODELHF"> F  </i>
   <i name="ENCUT4O">     -1.00000000</i>
   <i type="int" name="EXXOEP">     0</i>
   <i type="int" name="FOURORBIT">     0</i>
   <i name="AEXX">      0.00000000</i>
   <i name="HFALPHA">      0.00000000</i>
   <i name="MCALPHA">      0.00000000</i>
   <i name="ALDAX">      1.00000000</i>
   <i name="AGGAX">      1.00000000</i>
   <i name="ALDAC">      1.00000000</i>
   <i name="AGGAC">      1.00000000</i>
   <i type="int" name="NKREDX">     1</i>
   <i type="int" name="NKREDY">     1</i>
   <i type="int" name="NKREDZ">     1</i>
   <i type="logical" name="SHIFTRED"> F  </i>
   <i type="logical" name="ODDONLY"> F  </i>
   <i type="logical" name="EVENONLY"> F  </i>
   <i type="int" name="LMAXFOCK">     0</i>
   <i type="int" name="NMAXFOCKAE">     0</i>
   <i type="logical" name="LFOCKAEDFT"> F  </i>
   <i name="HFSCREEN">      0.00000000</i>
   <i name="HFSCREENC">      0.00000000</i>
   <i type="int" name="NBANDSGWLOW">     0</i>
  </separator>
  <separator name="vdW DFT" >
   <i type="logical" name="LUSE_VDW"> F  </i>
   <i name="Zab_VDW">     -0.84910000</i>
   <i name="PARAM1">      0.12340000</i>
   <i name="PARAM2">      1.00000000</i>
   <i name="PARAM3">      0.00000000</i>
  </separator>
  <separator name="model GW" >
   <i type="int" name="MODEL_GW">     0</i>
   <i name="MODEL_EPS0">      5.74480406</i>
   <i name="MODEL_ALPHA">      1.00000000</i>
  </separator>
  <separator name="linear response parameters" >
   <i type="logical" name="LEPSILON"> F  </i>
   <i type="logical" name="LRPA"> F  </i>
   <i type="logical" name="LNABLA"> F  </i>
   <i type="logical" name="LVEL"> F  </i>
   <i type="int" name="KINTER">     0</i>
   <i name="CSHIFT">      0.10000000</i>
   <i name="OMEGAMAX">     -1.00000000</i>
   <i name="DEG_THRESHOLD">      0.00200000</i>
   <i name="RTIME">     -0.10000000</i>
   <i name="WPLASMAI">      0.00000000</i>
   <v name="DFIELD">      0.00000000      0.00000000      0.00000000</v>
   <v name="WPLASMA">      0.00000000      0.00000000      0.00000000      0.00000000      0.00000000      0.00000000      0.00000000      0.00000000      0.00000000</v>
  </separator>
  <separator name="orbital magnetization" >
   <i type="logical" name="NUCIND"> F  </i>
   <v name="MAGPOS">      0.00000000      0.00000000      0.00000000</v>
   <i type="logical" name="LNICSALL"> T  </i>
   <i type="logical" name="ORBITALMAG"> F  </i>
   <i type="logical" name="LMAGBLOCH"> F  </i>
   <i type="logical" name="LCHIMAG"> F  </i>
   <i type="logical" name="LGAUGE"> T  </i>
   <i type="int" name="MAGATOM">     0</i>
   <v name="MAGDIPOL">      0.00000000      0.00000000      0.00000000</v>
   <v name="AVECCONST">      0.00000000      0.00000000      0.00000000</v>
  </separator>
  <separator name="response functions" >
   <i type="logical" name="LADDER"> F  </i>
   <i type="logical" name="LRPAFORCE"> F  </i>
   <i type="logical" name="LFXC"> F  </i>
   <i type="logical" name="LHARTREE"> T  </i>
   <i type="int" name="IBSE">     0</i>
   <v type="int" name="KPOINT">    -1     0     0     0</v>
   <i type="logical" name="LTCTE"> F  </i>
   <i type="logical" name="LTETE"> F  </i>
   <i type="logical" name="LTRIPLET"> F  </i>
   <i type="logical" name="LFXCEPS"> F  </i>
   <i type="logical" name="LFXHEG"> F  </i>
   <i type="int" name="NATURALO">     2</i>
   <i type="logical" name="L2ORDER"> F  </i>
   <i type="logical" name="LMP2LT"> F  </i>
   <i type="logical" name="LUSEW"> F  </i>
   <i name="ENCUTGW">     -2.00000000</i>
   <i name="ENCUTGWSOFT">     -2.00000000</i>
   <i name="ENCUTLF">     -1.00000000</i>
   <i type="int" name="LMAXMP2">    -1</i>
   <i name="SCISSOR">      0.00000000</i>
   <i type="int" name="NOMEGA">     0</i>
   <i type="int" name="NOMEGAR">     0</i>
   <i type="int" name="NBANDSGW">    -1</i>
   <i type="int" name="NBANDSO">    -1</i>
   <i type="int" name="NBANDSV">    -1</i>
   <i type="int" name="NELM">   100</i>
   <i type="int" name="NELMHF">     1</i>
   <i type="int" name="DIM">     3</i>
   <i type="int" name="ANTIRES">     0</i>
   <i name="OMEGAMAX">    -30.00000000</i>
   <i name="OMEGAMIN">    -30.00000000</i>
   <i name="OMEGATL">   -200.00000000</i>
   <i type="int" name="OMEGAGRID">   140</i>
   <i name="CSHIFT">     -0.10000000</i>
   <i type="logical" name="SELFENERGY"> F  </i>
   <i type="logical" name="LSPECTRAL"> F  </i>
   <i type="logical" name="LSPECTRALGW"> F  </i>
   <i type="logical" name="LSINGLES"> F  </i>
   <i type="logical" name="LFERMIGW"> F  </i>
   <i type="logical" name="ODDONLYGW"> F  </i>
   <i type="logical" name="EVENONLYGW"> F  </i>
   <i type="int" name="NKREDLFX">     1</i>
   <i type="int" name="NKREDLFY">     1</i>
   <i type="int" name="NKREDLFZ">     1</i>
   <i type="int" name="MAXMEM">  2800</i>
   <i type="int" name="TELESCOPE">     0</i>
   <i type="int" name="TAUPAR">     1</i>
   <i type="int" name="OMEGAPAR">    -1</i>
   <i name="LAMBDA">      1.00000000</i>
  </separator>
  <separator name="External order field" >
   <i name="OFIELD_KAPPA">      0.00000000</i>
   <v name="OFIELD_K">      0.00000000      0.00000000      0.00000000</v>
   <i name="OFIELD_Q6_NEAR">      0.00000000</i>
   <i name="OFIELD_Q6_FAR">      0.00000000</i>
   <i name="OFIELD_A">      0.00000000</i>
  </separator>
 </parameters>
 <atominfo>
  <atoms>      64 </atoms>
  <types>       2 </types>
  <array name="atoms" >
   <dimension dim="1">ion</dimension>
   <field type="string">element</field>
   <field type="int">atomtype</field>
   <set>
    <rc><c>Mg</c><c>   1</c></rc>
    <rc><c>Mg</c><c>   1</c></rc>
    <rc><c>Mg</c><c>   1</c></rc>
    <rc><c>Mg</c><c>   1</c></rc>
    <rc><c>Mg</c><c>   1</c></rc>
    <rc><c>Mg</c><c>   1</c></rc>
    <rc><c>Mg</c><c>   1</c></rc>
    <rc><c>Mg</c><c>   1</c></rc>
    <rc><c>Mg</c><c>   1</c></rc>
    <rc><c>Mg</c><c>   1</c></rc>
    <rc><c>Mg</c><c>   1</c></rc>
    <rc><c>Mg</c><c>   1</c></rc>
    <rc><c>Mg</c><c>   1</c></rc>
    <rc><c>Mg</c><c>   1</c></rc>
    <rc><c>Mg</c><c>   1</c></rc>
    <rc><c>Mg</c><c>   1</c></rc>
    <rc><c>Mg</c><c>   1</c></rc>
    <rc><c>Mg</c><c>   1</c></rc>
    <rc><c>Mg</c><c>   1</c></rc>
    <rc><c>Mg</c><c>   1</c></rc>
    <rc><c>Mg</c><c>   1</c></rc>
    <rc><c>Mg</c><c>   1</c></rc>
    <rc><c>Mg</c><c>   1</c></rc>
    <rc><c>Mg</c><c>   1</c></rc>
    <rc><c>Mg</c><c>   1</c></rc>
    <rc><c>Mg</c><c>   1</c></rc>
    <rc><c>Mg</c><c>   1</c></rc>
    <rc><c>Mg</c><c>   1</c></rc>
    <rc><c>Mg</c><c>   1</c></rc>
    <rc><c>Mg</c><c>   1</c></rc>
    <rc><c>Mg</c><c>   1</c></rc>
    <rc><c>Mg</c><c>   1</c></rc>
    <rc><c>O </c><c>   2</c></rc>
    <rc><c>O </c><c>   2</c></rc>
    <rc><c>O </c><c>   2</c></rc>
    <rc><c>O </c><c>   2</c></rc>
    <rc><c>O </c><c>   2</c></rc>
    <rc><c>O </c><c>   2</c></rc>
    <rc><c>O </c><c>   2</c></rc>
    <rc><c>O </c><c>   2</c></rc>
    <rc><c>O </c><c>   2</c></rc>
    <rc><c>O </c><c>   2</c></rc>
    <rc><c>O </c><c>   2</c></rc>
    <rc><c>O </c><c>   2</c></rc>
    <rc><c>O </c><c>   2</c></rc>
    <rc><c>O </c><c>   2</c></rc>
    <rc><c>O </c><c>   2</c></rc>
    <rc><c>O </c><c>   2</c></rc>
    <rc><c>O </c><c>   2</c></rc>
    <rc><c>O </c><c>   2</c></rc>
    <rc><c>O </c><c>   2</c></rc>
    <rc><c>O </c><c>   2</c></rc>
    <rc><c>O </c><c>   2</c></rc>
    <rc><c>O </c><c>   2</c></rc>
    <rc><c>O </c><c>   2</c></rc>
    <rc><c>O </c><c>   2</c></rc>
    <rc><c>O </c><c>   2</c></rc>
    <rc><c>O </c><c>   2</c></rc>
    <rc><c>O </c><c>   2</c></rc>
    <rc><c>O </c><c>   2</c></rc>
    <rc><c>O </c><c>   2</c></rc>
    <rc><c>O </c><c>   2</c></rc>
    <rc><c>O </c><c>   2</c></rc>
    <rc><c>O </c><c>   2</c></rc>
   </set>
  </array>
  <array name="atomtypes" >
   <dimension dim="1">type</dimension>
   <field type="int">atomspertype</field>
   <field type="string">element</field>
   <field>mass</field>
   <field>valence</field>
   <field type="string">pseudopotential</field>
   <set>
    <rc><c>  32</c><c>Mg</c><c>     24.30500000</c><c>      2.00000000</c><c>  PAW_PBE Mg 13Apr2007                  </c></rc>
    <rc><c>  32</c><c>O </c><c>     16.00000000</c><c>      6.00000000</c><c>  PAW_PBE O 08Apr2002                   </c></rc>
   </set>
  </array>
 </atominfo>
 <structure name="initialpos" >
  <crystal>
   <varray name="basis" >
    <v>       8.49378600       0.00000000       0.00000000 </v>
    <v>       0.00000000       8.49378600       0.00000000 </v>
    <v>       0.00000000       0.00000000       8.49378600 </v>
   </varray>
   <i name="volume">    612.77909991 </i>
   <varray name="rec_basis" >
    <v>       0.11773313       0.00000000       0.00000000 </v>
    <v>       0.00000000       0.11773313       0.00000000 </v>
    <v>       0.00000000       0.00000000       0.11773313 </v>
   </varray>
  </crystal>
  <varray name="positions" >
   <v>       0.00000000       0.00000000       0.00000000 </v>
   <v>       0.00000000       0.00000000       0.50000000 </v>
   <v>       0.00000000       0.50000000       0.00000000 </v>
   <v>       0.00000000       0.50000000       0.50000000 </v>
   <v>       0.50000000       0.00000000       0.00000000 </v>
   <v>       0.50000000       0.00000000       0.50000000 </v>
   <v>       0.50000000       0.50000000       0.00000000 </v>
   <v>       0.50000000       0.50000000       0.50000000 </v>
   <v>       0.00000000       0.25000000       0.25000000 </v>
   <v>       0.00000000       0.25000000       0.75000000 </v>
   <v>       0.00000000       0.75000000       0.25000000 </v>
   <v>       0.00000000       0.75000000       0.75000000 </v>
   <v>       0.50000000       0.25000000       0.25000000 </v>
   <v>       0.50000000       0.25000000       0.75000000 </v>
   <v>       0.50000000       0.75000000       0.25000000 </v>
   <v>       0.50000000       0.75000000       0.75000000 </v>
   <v>       0.25000000       0.00000000       0.25000000 </v>
   <v>       0.25000000       0.00000000       0.75000000 </v>
   <v>       0.25000000       0.50000000       0.25000000 </v>
   <v>       0.25000000       0.50000000       0.75000000 </v>
   <v>       0.75000000       0.00000000       0.25000000 </v>
   <v>       0.75000000       0.00000000       0.75000000 </v>
   <v>       0.75000000       0.50000000       0.25000000 </v>
   <v>       0.75000000       0.50000000       0.75000000 </v>
   <v>       0.25000000       0.25000000       0.00000000 </v>
   <v>       0.25000000       0.25000000       0.50000000 </v>
   <v>       0.25000000       0.75000000       0.00000000 </v>
   <v>       0.25000000       0.75000000       0.50000000 </v>
   <v>       0.75000000       0.25000000       0.00000000 </v>
   <v>       0.75000000       0.25000000       0.50000000 </v>
   <v>       0.75000000       0.75000000       0.00000000 </v>
   <v>       0.75000000       0.75000000       0.50000000 </v>
   <v>       0.25000000       0.00000000       0.00000000 </v>
   <v>       0.25000000       0.00000000       0.50000000 </v>
   <v>       0.25000000       0.50000000       0.00000000 </v>
   <v>       0.25000000       0.50000000       0.50000000 </v>
   <v>       0.75000000       0.00000000       0.00000000 </v>
   <v>       0.75000000       0.00000000       0.50000000 </v>
   <v>       0.75000000       0.50000000       0.00000000 </v>
   <v>       0.75000000       0.50000000       0.50000000 </v>
   <v>       0.25000000       0.25000000       0.25000000 </v>
   <v>       0.25000000       0.25000000       0.75000000 </v>
   <v>       0.25000000       0.75000000       0.25000000 </v>
   <v>       0.25000000       0.75000000       0.75000000 </v>
   <v>       0.75000000       0.25000000       0.25000000 </v>
   <v>       0.75000000       0.25000000       0.75000000 </v>
   <v>       0.75000000       0.75000000       0.25000000 </v>
   <v>       0.75000000       0.75000000       0.75000000 </v>
   <v>       0.00000000       0.00000000       0.25000000 </v>
   <v>       0.00000000       0.00000000       0.75000000 </v>
   <v>       0.00000000       0.50000000       0.25000000 </v>
   <v>       0.00000000       0.50000000       0.75000000 </v>
   <v>       0.50000000       0.00000000       0.25000000 </v>
   <v>       0.50000000       0.00000000       0.75000000 </v>
   <v>       0.50000000       0.50000000       0.25000000 </v>
   <v>       0.50000000       0.50000000       0.75000000 </v>
   <v>       0.00000000       0.25000000       0.00000000 </v>
   <v>       0.00000000       0.25000000       0.50000000 </v>
   <v>       0.00000000       0.75000000       0.00000000 </v>
   <v>       0.00000000       0.75000000       0.50000000 </v>
   <v>       0.50000000       0.25000000       0.00000000 </v>
   <v>       0.50000000       0.25000000       0.50000000 </v>
   <v>       0.50000000       0.75000000       0.00000000 </v>
   <v>       0.50000000       0.75000000       0.50000000 </v>
  </varray>
 </structure>
 <calculation>
  <scstep>
   <time name="dav">    0.29    0.31</time>
   <time name="total">    0.45    0.47</time>
   <energy>
    <i name="alphaZ">    610.43618949 </i>
    <i name="ewald"> -11368.11537345 </i>
    <i name="hartreedc">  -3918.55965489 </i>
    <i name="XCdc">   -606.82287265 </i>
    <i name="pawpsdc">  13130.89327885 </i>
    <i name="pawaedc"> -11547.99871169 </i>
    <i name="eentropy">     -0.08824563 </i>
    <i name="bandstr">    378.12622937 </i>
    <i name="atom">  14506.23696526 </i>
    <i name="e_fr_energy">   1184.10780466 </i>
    <i name="e_wo_entrp">   1184.19605029 </i>
    <i name="e_0_energy">   1184.15192747 </i>
   </energy>
  </scstep>
  <scstep>
   <time name="dav">    0.32    0.33</time>
   <time name="total">    0.32    0.33</time>
   <energy>
    <i name="e_fr_energy">   -354.56443967 </i>
    <i name="e_wo_entrp">   -354.56443967 </i>
    <i name="e_0_energy">   -354.56443967 </i>
   </energy>
  </scstep>
  <scstep>
   <time name="dav">    0.27    0.27</time>
   <time name="total">    0.27    0.27</time>
   <energy>
    <i name="e_fr_energy">   -443.27820436 </i>
    <i name="e_wo_entrp">   -443.27820436 </i>
    <i name="e_0_energy">   -443.27820436 </i>
   </energy>
  </scstep>
  <scstep>
   <time name="dav">    0.30    0.30</time>
   <time name="total">    0.30    0.30</time>
   <energy>
    <i name="e_fr_energy">   -444.09995843 </i>
    <i name="e_wo_entrp">   -444.09995843 </i>
    <i name="e_0_energy">   -444.09995843 </i>
   </energy>
  </scstep>
  <scstep>
   <time name="dav">    0.28    0.28</time>
   <time name="total">    0.35    0.35</time>
   <energy>
    <i name="e_fr_energy">   -444.11148637 </i>
    <i name="e_wo_entrp">   -444.11148637 </i>
    <i name="e_0_energy">   -444.11148637 </i>
   </energy>
  </scstep>
  <scstep>
   <time name="dav">    0.29    0.29</time>
   <time name="total">    0.52    0.52</time>
   <energy>
    <i name="e_fr_energy">   -402.00219243 </i>
    <i name="e_wo_entrp">   -402.00219243 </i>
    <i name="e_0_energy">   -402.00219243 </i>
   </energy>
  </scstep>
  <scstep>
   <time name="dav">    0.31    0.31</time>
   <time name="total">    0.54    0.54</time>
   <energy>
    <i name="e_fr_energy">   -401.31825426 </i>
    <i name="e_wo_entrp">   -401.31825426 </i>
    <i name="e_0_energy">   -401.31825426 </i>
   </energy>
  </scstep>
  <scstep>
   <time name="dav">    0.28    0.28</time>
   <time name="total">    0.51    0.51</time>
   <energy>
    <i name="e_fr_energy">   -400.84414876 </i>
    <i name="e_wo_entrp">   -400.84414876 </i>
    <i name="e_0_energy">   -400.84414876 </i>
   </energy>
  </scstep>
  <scstep>
   <time name="dav">    0.32    0.36</time>
   <time name="total">    0.55    0.59</time>
   <energy>
    <i name="e_fr_energy">   -400.82563517 </i>
    <i name="e_wo_entrp">   -400.82563517 </i>
    <i name="e_0_energy">   -400.82563517 </i>
   </energy>
  </scstep>
  <scstep>
   <time name="dav">    0.32    0.31</time>
   <time name="total">    0.54    0.54</time>
   <energy>
    <i name="e_fr_energy">   -400.82740445 </i>
    <i name="e_wo_entrp">   -400.82740445 </i>
    <i name="e_0_energy">   -400.82740445 </i>
   </energy>
  </scstep>
  <scstep>
   <time name="dav">    0.29    0.29</time>
   <time name="total">    0.52    0.52</time>
   <energy>
    <i name="e_fr_energy">   -400.82729531 </i>
    <i name="e_wo_entrp">   -400.82729531 </i>
    <i name="e_0_energy">   -400.82729531 </i>
   </energy>
  </scstep>
  <scstep>
   <time name="dav">    0.28    0.28</time>
   <time name="total">    0.51    0.51</time>
   <energy>
    <i name="e_fr_energy">   -400.82728680 </i>
    <i name="e_wo_entrp">   -400.82728680 </i>
    <i name="e_0_energy">   -400.82728680 </i>
   </energy>
  </scstep>
  <scstep>
   <time name="dav">    0.24    0.24</time>
   <time name="total">    0.39    0.39</time>
   <energy>
    <i name="alphaZ">    610.43618949 </i>
    <i name="ewald"> -11368.11537345 </i>
    <i name="hartreedc">  -4507.08225731 </i>
    <i name="XCdc">   -561.35891116 </i>
    <i name="pawpsdc">  17614.68018172 </i>
    <i name="pawaedc"> -16039.87828450 </i>
    <i name="eentropy">     -0.00000000 </i>
    <i name="bandstr">   -655.74579752 </i>
    <i name="atom">  14506.23696526 </i>
    <i name="e_fr_energy">   -400.82728746 </i>
    <i name="e_wo_entrp">   -400.82728746 </i>
    <i name="e_0_energy">   -400.82728746 </i>
   </energy>
  </scstep>
  <structure>
   <crystal>
    <varray name="basis" >
     <v>       8.49378600       0.00000000       0.00000000 </v>
     <v>       0.00000000       8.49378600       0.00000000 </v>
     <v>       0.00000000       0.00000000       8.49378600 </v>
    </varray>
    <i name="volume">    612.77909991 </i>
    <varray name="rec_basis" >
     <v>       0.11773313       0.00000000       0.00000000 </v>
     <v>       0.00000000       0.11773313       0.00000000 </v>
     <v>       0.00000000       0.00000000       0.11773313 </v>
    </varray>
   </crystal>
   <varray name="positions" >
    <v>       0.00000000       0.00000000       0.00000000 </v>
    <v>       0.00000000       0.00000000       0.50000000 </v>
    <v>       0.00000000       0.50000000       0.00000000 </v>
    <v>       0.00000000       0.50000000       0.50000000 </v>
    <v>       0.50000000       0.00000000       0.00000000 </v>
    <v>       0.50000000       0.00000000       0.50000000 </v>
    <v>       0.50000000       0.50000000       0.00000000 </v>
    <v>       0.50000000       0.50000000       0.50000000 </v>
    <v>       0.00000000       0.25000000       0.25000000 </v>
    <v>       0.00000000       0.25000000       0.75000000 </v>
    <v>       0.00000000       0.75000000       0.25000000 </v>
    <v>       0.00000000       0.75000000       0.75000000 </v>
    <v>       0.50000000       0.25000000       0.25000000 </v>
    <v>       0.50000000       0.25000000       0.75000000 </v>
    <v>       0.50000000       0.75000000       0.25000000 </v>
    <v>       0.50000000       0.75000000       0.75000000 </v>
    <v>       0.25000000       0.00000000       0.25000000 </v>
    <v>       0.25000000       0.00000000       0.75000000 </v>
    <v>       0.25000000       0.50000000       0.25000000 </v>
    <v>       0.25000000       0.50000000       0.75000000 </v>
    <v>       0.75000000       0.00000000       0.25000000 </v>
    <v>       0.75000000       0.00000000       0.75000000 </v>
    <v>       0.75000000       0.50000000       0.25000000 </v>
    <v>       0.75000000       0.50000000       0.75000000 </v>
    <v>       0.25000000       0.25000000       0.00000000 </v>
    <v>       0.25000000       0.25000000       0.50000000 </v>
    <v>       0.25000000       0.75000000       0.00000000 </v>
    <v>       0.25000000       0.75000000       0.50000000 </v>
    <v>       0.75000000       0.25000000       0.00000000 </v>
    <v>       0.75000000       0.25000000       0.50000000 </v>
    <v>       0.75000000       0.75000000       0.00000000 </v>
    <v>       0.75000000       0.75000000       0.50000000 </v>
    <v>       0.25000000       0.00000000       0.00000000 </v>
    <v>       0.25000000       0.00000000       0.50000000 </v>
    <v>       0.25000000       0.50000000       0.00000000 </v>
    <v>       0.25000000       0.50000000       0.50000000 </v>
    <v>       0.75000000       0.00000000       0.00000000 </v>
    <v>       0.75000000       0.00000000       0.50000000 </v>
    <v>       0.75000000       0.50000000       0.00000000 </v>
    <v>       0.75000000       0.50000000       0.50000000 </v>
    <v>       0.25000000       0.25000000       0.25000000 </v>
    <v>       0.25000000       0.25000000       0.75000000 </v>
    <v>       0.25000000       0.75000000       0.25000000 </v>
    <v>       0.25000000       0.75000000       0.75000000 </v>
    <v>       0.75000000       0.25000000       0.25000000 </v>
    <v>       0.75000000       0.25000000       0.75000000 </v>
    <v>       0.75000000       0.75000000       0.25000000 </v>
    <v>       0.75000000       0.75000000       0.75000000 </v>
    <v>       0.00000000       0.00000000       0.25000000 </v>
    <v>       0.00000000       0.00000000       0.75000000 </v>
    <v>       0.00000000       0.50000000       0.25000000 </v>
    <v>       0.00000000       0.50000000       0.75000000 </v>
    <v>       0.50000000       0.00000000       0.25000000 </v>
    <v>       0.50000000       0.00000000       0.75000000 </v>
    <v>       0.50000000       0.50000000       0.25000000 </v>
    <v>       0.50000000       0.50000000       0.75000000 </v>
    <v>       0.00000000       0.25000000       0.00000000 </v>
    <v>       0.00000000       0.25000000       0.50000000 </v>
    <v>       0.00000000       0.75000000       0.00000000 </v>
    <v>       0.00000000       0.75000000       0.50000000 </v>
    <v>       0.50000000       0.25000000       0.00000000 </v>
    <v>       0.50000000       0.25000000       0.50000000 </v>
    <v>       0.50000000       0.75000000       0.00000000 </v>
    <v>       0.50000000       0.75000000       0.50000000 </v>
   </varray>
  </structure>
  <varray name="forces" >
   <v>       0.00000000       0.00000000      -0.00000000 </v>
   <v>       0.00000000      -0.00000000      -0.00000000 </v>
   <v>       0.00000000      -0.00000000       0.00000000 </v>
   <v>      -0.00000000       0.00000000       0.00000000 </v>
   <v>      -0.00000000       0.00000000       0.00000000 </v>
   <v>      -0.00000000       0.00000000      -0.00000000 </v>
   <v>      -0.00000000       0.00000000      -0.00000000 </v>
   <v>       0.00000000       0.00000000       0.00000000 </v>
   <v>      -0.00000000      -0.00000000      -0.00000000 </v>
   <v>      -0.00000000      -0.00000000       0.00000000 </v>
   <v>       0.00000000       0.00000000      -0.00000000 </v>
   <v>       0.00000000       0.00000000       0.00000000 </v>
   <v>       0.00000000      -0.00000000      -0.00000000 </v>
   <v>      -0.00000000      -0.00000000       0.00000000 </v>
   <v>       0.00000000       0.00000000      -0.00000000 </v>
   <v>      -0.00000000       0.00000000       0.00000000 </v>
   <v>       0.00000000       0.00000000      -0.00000000 </v>
   <v>      -0.00000000      -0.00000000       0.00000000 </v>
   <v>       0.00000000      -0.00000000      -0.00000000 </v>
   <v>      -0.00000000      -0.00000000       0.00000000 </v>
   <v>      -0.00000000       0.00000000      -0.00000000 </v>
   <v>       0.00000000      -0.00000000       0.00000000 </v>
   <v>       0.00000000       0.00000000      -0.00000000 </v>
   <v>      -0.00000000      -0.00000000       0.00000000 </v>
   <v>       0.00000000      -0.00000000      -0.00000000 </v>
   <v>       0.00000000       0.00000000       0.00000000 </v>
   <v>       0.00000000       0.00000000      -0.00000000 </v>
   <v>       0.00000000       0.00000000       0.00000000 </v>
   <v>      -0.00000000      -0.00000000       0.00000000 </v>
   <v>      -0.00000000       0.00000000       0.00000000 </v>
   <v>       0.00000000       0.00000000      -0.00000000 </v>
   <v>       0.00000000       0.00000000       0.00000000 </v>
   <v>       0.00000000       0.00000000      -0.00000000 </v>
   <v>       0.00000000      -0.00000000      -0.00000000 </v>
   <v>      -0.00000000       0.00000000      -0.00000000 </v>
   <v>      -0.00000000      -0.00000000      -0.00000000 </v>
   <v>       0.00000000      -0.00000000       0.00000000 </v>
   <v>      -0.00000000      -0.00000000       0.00000000 </v>
   <v>      -0.00000000      -0.00000000       0.00000000 </v>
   <v>       0.00000000      -0.00000000      -0.00000000 </v>
   <v>      -0.00000000      -0.00000000      -0.00000000 </v>
   <v>       0.00000000       0.00000000      -0.00000000 </v>
   <v>      -0.00000000       0.00000000      -0.00000000 </v>
   <v>      -0.00000000       0.00000000       0.00000000 </v>
   <v>      -0.00000000      -0.00000000       0.00000000 </v>
   <v>       0.00000000       0.00000000       0.00000000 </v>
   <v>      -0.00000000      -0.00000000      -0.00000000 </v>
   <v>       0.00000000       0.00000000       0.00000000 </v>
   <v>       0.00000000       0.00000000      -0.00000000 </v>
   <v>       0.00000000      -0.00000000       0.00000000 </v>
   <v>      -0.00000000      -0.00000000      -0.00000000 </v>
   <v>       0.00000000       0.00000000       0.00000000 </v>
   <v>      -0.00000000      -0.00000000       0.00000000 </v>
   <v>       0.00000000      -0.00000000       0.00000000 </v>
   <v>      -0.00000000      -0.00000000      -0.00000000 </v>
   <v>      -0.00000000      -0.00000000      -0.00000000 </v>
   <v>      -0.00000000      -0.00000000      -0.00000000 </v>
   <v>       0.00000000      -0.00000000      -0.00000000 </v>
   <v>      -0.00000000       0.00000000       0.00000000 </v>
   <v>      -0.00000000       0.00000000      -0.00000000 </v>
   <v>      -0.00000000       0.00000000      -0.00000000 </v>
   <v>       0.00000000      -0.00000000       0.00000000 </v>
   <v>      -0.00000000       0.00000000       0.00000000 </v>
   <v>      -0.00000000      -0.00000000       0.00000000 </v>
  </varray>
  <varray name="stress" >
   <v>     -91.50041132       0.00000000      -0.00000000 </v>
   <v>      -0.00000000     -91.50041132      -0.00000000 </v>
   <v>       0.00000000       0.00000000     -91.50041132 </v>
  </varray>
  <energy>
   <i name="e_fr_energy">   -400.82728746 </i>
   <i name="e_wo_entrp">   -400.82728746 </i>
   <i name="e_0_energy">     -0.00000000 </i>
  </energy>
  <time name="totalsc">    6.60    6.70</time>
  <eigenvalues>
   <array>
    <dimension dim="1">band</dimension>
    <dimension dim="2">kpoint</dimension>
    <dimension dim="3">spin</dimension>
    <field>eigene</field>
    <field>occ</field>
    <set>
     <set comment="spin 1">
      <set comment="kpoint 1">
       <r>  -14.0409    1.0000 </r>
       <r>  -13.6683    1.0000 </r>
       <r>  -13.6683    1.0000 </r>
       <r>  -13.6683    1.0000 </r>
       <r>  -13.3701    1.0000 </r>
       <r>  -13.3701    1.0000 </r>
       <r>  -13.3701    1.0000 </r>
       <r>  -13.1650    1.0000 </r>
       <r>  -13.1263    1.0000 </r>
       <r>  -13.1263    1.0000 </r>
       <r>  -13.1263    1.0000 </r>
       <r>  -12.9661    1.0000 </r>
       <r>  -12.9661    1.0000 </r>
       <r>  -12.9661    1.0000 </r>
       <r>  -12.9661    1.0000 </r>
       <r>  -12.9661    1.0000 </r>
       <r>  -12.9661    1.0000 </r>
       <r>  -12.9192    1.0000 </r>
       <r>  -12.9192    1.0000 </r>
       <r>  -12.9192    1.0000 </r>
       <r>  -12.7882    1.0000 </r>
       <r>  -12.7882    1.0000 </r>
       <r>  -12.7882    1.0000 </r>
       <r>  -12.7384    1.0000 </r>
       <r>  -12.7384    1.0000 </r>
       <r>  -12.7383    1.0000 </r>
       <r>  -12.7015    1.0000 </r>
       <r>  -12.7015    1.0000 </r>
       <r>  -12.7015    1.0000 </r>
       <r>  -12.7014    1.0000 </r>
       <r>  -12.7014    1.0000 </r>
       <r>  -12.7014    1.0000 </r>
       <r>   -1.4323    1.0000 </r>
       <r>   -1.4323    1.0000 </r>
       <r>   -1.4323    1.0000 </r>
       <r>   -1.1573    1.0000 </r>
       <r>   -0.9658    1.0000 </r>
       <r>   -0.9658    1.0000 </r>
       <r>   -0.9658    1.0000 </r>
       <r>   -0.8410    1.0000 </r>
       <r>   -0.8410    1.0000 </r>
       <r>   -0.8410    1.0000 </r>
       <r>   -0.7977    1.0000 </r>
       <r>   -0.7977    1.0000 </r>
       <r>   -0.7977    1.0000 </r>
       <r>   -0.7977    1.0000 </r>
       <r>   -0.7977    1.0000 </r>
       <r>   -0.7977    1.0000 </r>
       <r>   -0.5981    1.0000 </r>
       <r>   -0.5981    1.0000 </r>
       <r>   -0.5981    1.0000 </r>
       <r>   -0.5981    1.0000 </r>
       <r>   -0.5981    1.0000 </r>
       <r>   -0.5981    1.0000 </r>
       <r>   -0.4719    1.0000 </r>
       <r>   -0.4719    1.0000 </r>
       <r>   -0.4719    1.0000 </r>
       <r>   -0.2817    1.0000 </r>
       <r>   -0.2817    1.0000 </r>
       <r>   -0.2817    1.0000 </r>
       <r>    0.4152    1.0000 </r>
       <r>    0.4152    1.0000 </r>
       <r>    0.4152    1.0000 </r>
       <r>    0.4153    1.0000 </r>
       <r>    0.4153    1.0000 </r>
       <r>    0.4153    1.0000 </r>
       <r>    0.5217    1.0000 </r>
       <r>    0.5217    1.0000 </r>
       <r>    0.5217    1.0000 </r>
       <r>    0.6149    1.0000 </r>
       <r>    0.6149    1.0000 </r>
       <r>    0.6149    1.0000 </r>
       <r>    1.1676    1.0000 </r>
       <r>    1.1676    1.0000 </r>
       <r>    1.1676    1.0000 </r>
       <r>    1.1678    1.0000 </r>
       <r>    1.1678    1.0000 </r>
       <r>    1.1678    1.0000 </r>
       <r>    1.1707    1.0000 </r>
       <r>    1.1708    1.0000 </r>
       <r>    1.1708    1.0000 </r>
       <r>    1.5169    1.0000 </r>
       <r>    1.5169    1.0000 </r>
       <r>    1.5169    1.0000 </r>
       <r>    1.5171    1.0000 </r>
       <r>    1.5171    1.0000 </r>
       <r>    1.5171    1.0000 </r>
       <r>    1.6379    1.0000 </r>
       <r>    1.6379    1.0000 </r>
       <r>    1.6381    1.0000 </r>
       <r>    1.6965    1.0000 </r>
       <r>    1.6965    1.0000 </r>
       <r>    1.6965    1.0000 </r>
       <r>    1.7452    1.0000 </r>
       <r>    1.7452    1.0000 </r>
       <r>    1.7452    1.0000 </r>
       <r>    1.8994    1.0000 </r>
       <r>    1.8994    1.0000 </r>
       <r>    1.8994    1.0000 </r>
       <r>    1.9161    1.0000 </r>
       <r>    1.9345    1.0000 </r>
       <r>    1.9345    1.0000 </r>
       <r>    1.9345    1.0000 </r>
       <r>    1.9927    1.0000 </r>
       <r>    1.9927    1.0000 </r>
       <r>    1.9927    1.0000 </r>
       <r>    2.0234    1.0000 </r>
       <r>    2.0234    1.0000 </r>
       <r>    2.0234    1.0000 </r>
       <r>    2.0234    1.0000 </r>
       <r>    2.0234    1.0000 </r>
       <r>    2.0234    1.0000 </r>
       <r>    2.1282    1.0000 </r>
       <r>    2.1282    1.0000 </r>
       <r>    2.1285    1.0000 </r>
       <r>    2.3230    1.0000 </r>
       <r>    2.3230    1.0000 </r>
       <r>    2.3978    1.0000 </r>
       <r>    2.3978    1.0000 </r>
       <r>    2.3978    1.0000 </r>
       <r>    2.4015    1.0000 </r>
       <r>    2.4015    1.0000 </r>
       <r>    2.4015    1.0000 </r>
       <r>    2.4685    1.0000 </r>
       <r>    2.4685    1.0000 </r>
       <r>    2.4685    1.0000 </r>
       <r>    2.7746    1.0000 </r>
       <r>    2.7746    1.0000 </r>
       <r>    8.2034    0.0000 </r>
       <r>    9.7926    0.0000 </r>
       <r>    9.7926    0.0000 </r>
       <r>    9.7926    0.0000 </r>
       <r>   10.3730    0.0000 </r>
       <r>   10.6076    0.0000 </r>
       <r>   10.6076    0.0000 </r>
       <r>   10.6076    0.0000 </r>
       <r>   11.1564    0.0000 </r>
       <r>   11.1565    0.0000 </r>
       <r>   11.1565    0.0000 </r>
       <r>   11.7211    0.0000 </r>
       <r>   11.7211    0.0000 </r>
       <r>   11.7211    0.0000 </r>
       <r>   12.0556    0.0000 </r>
       <r>   12.0556    0.0000 </r>
       <r>   12.0556    0.0000 </r>
       <r>   12.0556    0.0000 </r>
       <r>   12.0556    0.0000 </r>
       <r>   12.0556    0.0000 </r>
       <r>   12.2342    0.0000 </r>
       <r>   12.2342    0.0000 </r>
       <r>   12.2342    0.0000 </r>
       <r>   12.5127    0.0000 </r>
       <r>   12.5127    0.0000 </r>
       <r>   12.5127    0.0000 </r>
       <r>   12.9856    0.0000 </r>
       <r>   12.9857    0.0000 </r>
       <r>   12.9862    0.0000 </r>
       <r>   13.1847    0.0000 </r>
       <r>   13.1847    0.0000 </r>
       <r>   13.1849    0.0000 </r>
       <r>   13.1859    0.0000 </r>
       <r>   13.1865    0.0000 </r>
      </set>
     </set>
    </set>
   </array>
  </eigenvalues>
  <separator name="orbital magnetization" >
   <v name="MAGDIPOLOUT">      0.00000000      0.00000000      0.00000000</v>
  </separator>
  <dos>
   <i name="efermi">      3.27287154 </i>
   <total>
    <array>
     <dimension dim="1">gridpoints</dimension>
     <dimension dim="2">spin</dimension>
     <field>energy</field>
     <field>total</field>
     <field>integrated</field>
     <set>
      <set comment="spin 1">
       <r>   -15.4023     0.0000     0.0000 </r>
       <r>   -15.3025     0.0000     0.0000 </r>
       <r>   -15.2026     0.0000     0.0000 </r>
       <r>   -15.1028     0.0000     0.0000 </r>
       <r>   -15.0030     0.0000     0.0000 </r>
       <r>   -14.9031     0.0000     0.0000 </r>
       <r>   -14.8033     0.0000     0.0000 </r>
       <r>   -14.7035     0.0000     0.0000 </r>
       <r>   -14.6036     0.0000     0.0000 </r>
       <r>   -14.5038     0.0000     0.0000 </r>
       <r>   -14.4040     0.0000     0.0000 </r>
       <r>   -14.3041     0.0020     0.0002 </r>
       <r>   -14.2043     0.2071     0.0209 </r>
       <r>   -14.1045     3.4865     0.3689 </r>
       <r>   -14.0046    10.2510     1.3923 </r>
       <r>   -13.9048     5.5686     1.9483 </r>
       <r>   -13.8050     2.1088     2.1588 </r>
       <r>   -13.7051    16.5043     3.8065 </r>
       <r>   -13.6053    30.8179     6.8832 </r>
       <r>   -13.5055    12.2163     8.1028 </r>
       <r>   -13.4056    17.4623     9.8461 </r>
       <r>   -13.3058    31.4943    12.9903 </r>
       <r>   -13.2060    22.9924    15.2857 </r>
       <r>   -13.1061    43.0019    19.5788 </r>
       <r>   -13.0063    62.1544    25.7839 </r>
       <r>   -12.9065    96.1775    35.3856 </r>
       <r>   -12.8066    83.5709    43.7289 </r>
       <r>   -12.7068   112.0501    54.9153 </r>
       <r>   -12.6070    77.8870    62.6910 </r>
       <r>   -12.5071    12.7171    63.9606 </r>
       <r>   -12.4073     0.3925    63.9998 </r>
       <r>   -12.3075     0.0020    64.0000 </r>
       <r>   -12.2076     0.0000    64.0000 </r>
       <r>   -12.1078     0.0000    64.0000 </r>
       <r>   -12.0080     0.0000    64.0000 </r>
       <r>   -11.9081     0.0000    64.0000 </r>
       <r>   -11.8083     0.0000    64.0000 </r>
       <r>   -11.7085     0.0000    64.0000 </r>
       <r>   -11.6086     0.0000    64.0000 </r>
       <r>   -11.5088     0.0000    64.0000 </r>
       <r>   -11.4090     0.0000    64.0000 </r>
       <r>   -11.3091     0.0000    64.0000 </r>
       <r>   -11.2093     0.0000    64.0000 </r>
       <r>   -11.1095     0.0000    64.0000 </r>
       <r>   -11.0096     0.0000    64.0000 </r>
       <r>   -10.9098     0.0000    64.0000 </r>
       <r>   -10.8100     0.0000    64.0000 </r>
       <r>   -10.7101     0.0000    64.0000 </r>
       <r>   -10.6103     0.0000    64.0000 </r>
       <r>   -10.5104     0.0000    64.0000 </r>
       <r>   -10.4106     0.0000    64.0000 </r>
       <r>   -10.3108     0.0000    64.0000 </r>
       <r>   -10.2109     0.0000    64.0000 </r>
       <r>   -10.1111     0.0000    64.0000 </r>
       <r>   -10.0113     0.0000    64.0000 </r>
       <r>    -9.9114     0.0000    64.0000 </r>
       <r>    -9.8116     0.0000    64.0000 </r>
       <r>    -9.7118     0.0000    64.0000 </r>
       <r>    -9.6119     0.0000    64.0000 </r>
       <r>    -9.5121     0.0000    64.0000 </r>
       <r>    -9.4123     0.0000    64.0000 </r>
       <r>    -9.3124     0.0000    64.0000 </r>
       <r>    -9.2126     0.0000    64.0000 </r>
       <r>    -9.1128     0.0000    64.0000 </r>
       <r>    -9.0129     0.0000    64.0000 </r>
       <r>    -8.9131     0.0000    64.0000 </r>
       <r>    -8.8133     0.0000    64.0000 </r>
       <r>    -8.7134     0.0000    64.0000 </r>
       <r>    -8.6136     0.0000    64.0000 </r>
       <r>    -8.5138     0.0000    64.0000 </r>
       <r>    -8.4139     0.0000    64.0000 </r>
       <r>    -8.3141     0.0000    64.0000 </r>
       <r>    -8.2143     0.0000    64.0000 </r>
       <r>    -8.1144     0.0000    64.0000 </r>
       <r>    -8.0146     0.0000    64.0000 </r>
       <r>    -7.9148     0.0000    64.0000 </r>
       <r>    -7.8149     0.0000    64.0000 </r>
       <r>    -7.7151     0.0000    64.0000 </r>
       <r>    -7.6153     0.0000    64.0000 </r>
       <r>    -7.5154     0.0000    64.0000 </r>
       <r>    -7.4156     0.0000    64.0000 </r>
       <r>    -7.3158     0.0000    64.0000 </r>
       <r>    -7.2159     0.0000    64.0000 </r>
       <r>    -7.1161     0.0000    64.0000 </r>
       <r>    -7.0163     0.0000    64.0000 </r>
       <r>    -6.9164     0.0000    64.0000 </r>
       <r>    -6.8166     0.0000    64.0000 </r>
       <r>    -6.7168     0.0000    64.0000 </r>
       <r>    -6.6169     0.0000    64.0000 </r>
       <r>    -6.5171     0.0000    64.0000 </r>
       <r>    -6.4173     0.0000    64.0000 </r>
       <r>    -6.3174     0.0000    64.0000 </r>
       <r>    -6.2176     0.0000    64.0000 </r>
       <r>    -6.1178     0.0000    64.0000 </r>
       <r>    -6.0179     0.0000    64.0000 </r>
       <r>    -5.9181     0.0000    64.0000 </r>
       <r>    -5.8183     0.0000    64.0000 </r>
       <r>    -5.7184     0.0000    64.0000 </r>
       <r>    -5.6186     0.0000    64.0000 </r>
       <r>    -5.5188     0.0000    64.0000 </r>
       <r>    -5.4189     0.0000    64.0000 </r>
       <r>    -5.3191     0.0000    64.0000 </r>
       <r>    -5.2193     0.0000    64.0000 </r>
       <r>    -5.1194     0.0000    64.0000 </r>
       <r>    -5.0196     0.0000    64.0000 </r>
       <r>    -4.9197     0.0000    64.0000 </r>
       <r>    -4.8199     0.0000    64.0000 </r>
       <r>    -4.7201     0.0000    64.0000 </r>
       <r>    -4.6202     0.0000    64.0000 </r>
       <r>    -4.5204     0.0000    64.0000 </r>
       <r>    -4.4206     0.0000    64.0000 </r>
       <r>    -4.3207     0.0000    64.0000 </r>
       <r>    -4.2209     0.0000    64.0000 </r>
       <r>    -4.1211     0.0000    64.0000 </r>
       <r>    -4.0212     0.0000    64.0000 </r>
       <r>    -3.9214     0.0000    64.0000 </r>
       <r>    -3.8216     0.0000    64.0000 </r>
       <r>    -3.7217     0.0000    64.0000 </r>
       <r>    -3.6219     0.0000    64.0000 </r>
       <r>    -3.5221     0.0000    64.0000 </r>
       <r>    -3.4222     0.0000    64.0000 </r>
       <r>    -3.3224     0.0000    64.0000 </r>
       <r>    -3.2226     0.0000    64.0000 </r>
       <r>    -3.1227     0.0000    64.0000 </r>
       <r>    -3.0229     0.0000    64.0000 </r>
       <r>    -2.9231     0.0000    64.0000 </r>
       <r>    -2.8232     0.0000    64.0000 </r>
       <r>    -2.7234     0.0000    64.0000 </r>
       <r>    -2.6236     0.0000    64.0000 </r>
       <r>    -2.5237     0.0000    64.0000 </r>
       <r>    -2.4239     0.0000    64.0000 </r>
       <r>    -2.3241     0.0000    64.0000 </r>
       <r>    -2.2242     0.0000    64.0000 </r>
       <r>    -2.1244     0.0000    64.0000 </r>
       <r>    -2.0246     0.0000    64.0000 </r>
       <r>    -1.9247     0.0000    64.0000 </r>
       <r>    -1.8249     0.0000    64.0000 </r>
       <r>    -1.7251     0.0010    64.0001 </r>
       <r>    -1.6252     0.1903    64.0191 </r>
       <r>    -1.5254     5.4594    64.5641 </r>
       <r>    -1.4256    26.6864    67.2283 </r>
       <r>    -1.3257    23.9772    69.6221 </r>
       <r>    -1.2259     7.0152    70.3224 </r>
       <r>    -1.1261    10.9153    71.4121 </r>
       <r>    -1.0262    17.3930    73.1486 </r>
       <r>    -0.9264    42.1904    77.3606 </r>
       <r>    -0.8266    80.9516    85.4423 </r>
       <r>    -0.7267    87.7192    94.1997 </r>
       <r>    -0.6269    58.9931   100.0892 </r>
       <r>    -0.5271    73.4059   107.4176 </r>
       <r>    -0.4272    50.3255   112.4418 </r>
       <r>    -0.3274    29.9510   115.4319 </r>
       <r>    -0.2276    32.4140   118.6679 </r>
       <r>    -0.1277    12.4598   119.9118 </r>
       <r>    -0.0279     0.8733   119.9990 </r>
       <r>     0.0719     0.0100   120.0000 </r>
       <r>     0.1718     0.0345   120.0035 </r>
       <r>     0.2716     2.5154   120.2546 </r>
       <r>     0.3714    30.6690   123.3164 </r>
       <r>     0.4713    76.8228   130.9859 </r>
       <r>     0.5711    70.1550   137.9898 </r>
       <r>     0.6710    46.2899   142.6111 </r>
       <r>     0.7708    13.0750   143.9164 </r>
       <r>     0.8706     0.8307   143.9993 </r>
       <r>     0.9705     0.4625   144.0455 </r>
       <r>     1.0703    14.3259   145.4757 </r>
       <r>     1.1701    76.7861   153.1416 </r>
       <r>     1.2700    75.0258   160.6317 </r>
       <r>     1.3698    15.5509   162.1842 </r>
       <r>     1.4696    28.9276   165.0722 </r>
       <r>     1.5695    74.4511   172.5049 </r>
       <r>     1.6693    83.0446   180.7956 </r>
       <r>     1.7691    82.0573   188.9877 </r>
       <r>     1.8690    67.2013   195.6966 </r>
       <r>     1.9688   119.2082   207.5977 </r>
       <r>     2.0686   133.8517   220.9606 </r>
       <r>     2.1685    71.2179   228.0706 </r>
       <r>     2.2683    30.6033   231.1258 </r>
       <r>     2.3681    62.3949   237.3549 </r>
       <r>     2.4680    95.5749   246.8965 </r>
       <r>     2.5678    45.3134   251.4204 </r>
       <r>     2.6676     8.2608   252.2451 </r>
       <r>     2.7675    15.9643   253.8388 </r>
       <r>     2.8673    17.8423   255.6201 </r>
       <r>     2.9671     3.6754   255.9870 </r>
       <r>     3.0670     0.1290   255.9999 </r>
       <r>     3.1668     0.0007   256.0000 </r>
       <r>     3.2666     0.0000   256.0000 </r>
       <r>     3.3665     0.0000   256.0000 </r>
       <r>     3.4663     0.0000   256.0000 </r>
       <r>     3.5661     0.0000   256.0000 </r>
       <r>     3.6660     0.0000   256.0000 </r>
       <r>     3.7658     0.0000   256.0000 </r>
       <r>     3.8656     0.0000   256.0000 </r>
       <r>     3.9655     0.0000   256.0000 </r>
       <r>     4.0653     0.0000   256.0000 </r>
       <r>     4.1651     0.0000   256.0000 </r>
       <r>     4.2650     0.0000   256.0000 </r>
       <r>     4.3648     0.0000   256.0000 </r>
       <r>     4.4646     0.0000   256.0000 </r>
       <r>     4.5645     0.0000   256.0000 </r>
       <r>     4.6643     0.0000   256.0000 </r>
       <r>     4.7641     0.0000   256.0000 </r>
       <r>     4.8640     0.0000   256.0000 </r>
       <r>     4.9638     0.0000   256.0000 </r>
       <r>     5.0636     0.0000   256.0000 </r>
       <r>     5.1635     0.0000   256.0000 </r>
       <r>     5.2633     0.0000   256.0000 </r>
       <r>     5.3631     0.0000   256.0000 </r>
       <r>     5.4630     0.0000   256.0000 </r>
       <r>     5.5628     0.0000   256.0000 </r>
       <r>     5.6626     0.0000   256.0000 </r>
       <r>     5.7625     0.0000   256.0000 </r>
       <r>     5.8623     0.0000   256.0000 </r>
       <r>     5.9621     0.0000   256.0000 </r>
       <r>     6.0620     0.0000   256.0000 </r>
       <r>     6.1618     0.0000   256.0000 </r>
       <r>     6.2616     0.0000   256.0000 </r>
       <r>     6.3615     0.0000   256.0000 </r>
       <r>     6.4613     0.0000   256.0000 </r>
       <r>     6.5612     0.0000   256.0000 </r>
       <r>     6.6610     0.0000   256.0000 </r>
       <r>     6.7608     0.0000   256.0000 </r>
       <r>     6.8607     0.0000   256.0000 </r>
       <r>     6.9605     0.0000   256.0000 </r>
       <r>     7.0603     0.0000   256.0000 </r>
       <r>     7.1602     0.0000   256.0000 </r>
       <r>     7.2600     0.0000   256.0000 </r>
       <r>     7.3598     0.0000   256.0000 </r>
       <r>     7.4597     0.0000   256.0000 </r>
       <r>     7.5595     0.0000   256.0000 </r>
       <r>     7.6593     0.0000   256.0000 </r>
       <r>     7.7592     0.0000   256.0000 </r>
       <r>     7.8590     0.0000   256.0000 </r>
       <r>     7.9588     0.0054   256.0005 </r>
       <r>     8.0587     0.4021   256.0407 </r>
       <r>     8.1585     4.8567   256.5256 </r>
       <r>     8.2583    10.3905   257.5629 </r>
       <r>     8.3582     4.0920   257.9714 </r>
       <r>     8.4580     0.2833   257.9997 </r>
       <r>     8.5578     0.0032   258.0000 </r>
       <r>     8.6577     0.0000   258.0000 </r>
       <r>     8.7575     0.0000   258.0000 </r>
       <r>     8.8573     0.0000   258.0000 </r>
       <r>     8.9572     0.0000   258.0000 </r>
       <r>     9.0570     0.0000   258.0000 </r>
       <r>     9.1568     0.0000   258.0000 </r>
       <r>     9.2567     0.0000   258.0000 </r>
       <r>     9.3565     0.0000   258.0000 </r>
       <r>     9.4563     0.0001   258.0000 </r>
       <r>     9.5562     0.0247   258.0025 </r>
       <r>     9.6560     1.5779   258.1600 </r>
       <r>     9.7558    16.5122   259.8085 </r>
       <r>     9.8557    30.7869   262.8821 </r>
       <r>     9.9555    10.5593   263.9362 </r>
       <r>    10.0553     0.6327   263.9994 </r>
       <r>    10.1552     0.0267   264.0021 </r>
       <r>    10.2550     0.9332   264.0952 </r>
       <r>    10.3548     7.0452   264.7986 </r>
       <r>    10.4547    10.4682   265.8437 </r>
       <r>    10.5545    15.0629   267.3474 </r>
       <r>    10.6543    31.3131   270.4736 </r>
       <r>    10.7542    14.1416   271.8854 </r>
       <r>    10.8540     1.1340   271.9986 </r>
       <r>    10.9538     0.1394   272.0125 </r>
       <r>    11.0537     4.2643   272.4382 </r>
       <r>    11.1535    24.6613   274.9002 </r>
       <r>    11.2533    25.9217   277.4881 </r>
       <r>    11.3532     4.9651   277.9838 </r>
       <r>    11.4530     0.1660   278.0004 </r>
       <r>    11.5528     0.5177   278.0521 </r>
       <r>    11.6527     9.4970   279.0002 </r>
       <r>    11.7525    30.3506   282.0302 </r>
       <r>    11.8523    18.0689   283.8341 </r>
       <r>    11.9522    10.2581   284.8582 </r>
       <r>    12.0520    49.3650   289.7865 </r>
       <r>    12.1519    59.1425   295.6909 </r>
       <r>    12.2517    38.6769   299.5522 </r>
       <r>    12.3515    22.2762   301.7761 </r>
       <r>    12.4514    13.7580   303.1496 </r>
       <r>    12.5512    30.9571   306.2402 </r>
       <r>    12.6510    16.1096   307.8485 </r>
       <r>    12.7509     1.5216   308.0004 </r>
       <r>    12.8507     1.6788   308.1680 </r>
       <r>    12.9505    16.9223   309.8574 </r>
       <r>    13.0504    33.4522   313.1971 </r>
       <r>    13.1502    38.4440   317.0351 </r>
       <r>    13.2500    51.7102   322.1975 </r>
       <r>    13.3499    17.0533   323.9000 </r>
       <r>    13.4497     0.9922   323.9991 </r>
       <r>    13.5495     0.0093   324.0000 </r>
       <r>    13.6494     0.0000   324.0000 </r>
       <r>    13.7492     0.0000   324.0000 </r>
       <r>    13.8490     0.0000   324.0000 </r>
       <r>    13.9489     0.0000   324.0000 </r>
       <r>    14.0487     0.0000   324.0000 </r>
       <r>    14.1485     0.0000   324.0000 </r>
       <r>    14.2484     0.0000   324.0000 </r>
       <r>    14.3482     0.0000   324.0000 </r>
       <r>    14.4480     0.0000   324.0000 </r>
       <r>    14.5479     0.0000   324.0000 </r>
      </set>
     </set>
    </array>
   </total>
   <partial>
    <array>
     <dimension dim="1">gridpoints</dimension>
     <dimension dim="2">spin</dimension>
     <dimension dim="3">ion</dimension>
     <field>energy</field>
     <field>    s</field>
     <field>   py</field>
     <field>   pz</field>
     <field>   px</field>
     <field>  dxy</field>
     <field>  dyz</field>
     <field>  dz2</field>
     <field>  dxz</field>
     <field>x2-y2</field>
     <set>
      <set comment="ion 1">
       <set comment="spin 1">
        <r>   -15.4023     0.0000     0.0000     0.0000     0.0000     0.0000     0.0000     0.0000     0.0000     0.0000 </r>
        <r>   -15.3025     0.0000     0.0000     0.0000     0.0000     0.0000     0.0000     0.0000     0.0000     0.0000 </r>
        <r>   -15.2026     0.0000     0.0000     0.0000     0.0000     0.0000     0.0000     0.0000     0.0000     0.0000 </r>
        <r>   -15.1028     0.0000     0.0000     0.0000     0.0000     0.0000     0.0000     0.0000     0.0000     0.0000 </r>
        <r>   -15.0030     0.0000     0.0000     0.0000     0.0000     0.0000     0.0000     0.0000     0.0000     0.0000 </r>
        <r>   -14.9031     0.0000     0.0000     0.0000     0.0000     0.0000     0.0000     0.0000     0.0000     0.0000 </r>
        <r>   -14.8033     0.0000     0.0000     0.0000     0.0000     0.0000     0.0000     0.0000     0.0000     0.0000 </r>
        <r>   -14.7035     0.0000     0.0000     0.0000     0.0000     0.0000     0.0000     0.0000     0.0000     0.0000 </r>
        <r>   -14.6036     0.0000     0.0000     0.0000     0.0000     0.0000     0.0000     0.0000     0.0000     0.0000 </r>
        <r>   -14.5038     0.0000     0.0000     0.0000     0.0000     0.0000     0.0000     0.0000     0.0000     0.0000 </r>
        <r>   -14.4040     0.0000     0.0000     0.0000     0.0000     0.0000     0.0000     0.0000     0.0000     0.0000 </r>
        <r>   -14.3041     0.0000     0.0000     0.0000     0.0000     0.0000     0.0000     0.0000     0.0000     0.0000 </r>
        <r>   -14.2043     0.0002     0.0000     0.0000     0.0000     0.0000     0.0000     0.0000     0.0000     0.0000 </r>
        <r>   -14.1045     0.0041     0.0001     0.0001     0.0001     0.0000     0.0000     0.0000     0.0000     0.0000 </r>
        <r>   -14.0046     0.0120     0.0003     0.0003     0.0003     0.0000     0.0000     0.0000     0.0000     0.0000 </r>
        <r>   -13.9048     0.0065     0.0001     0.0001     0.0001     0.0000     0.0000     0.0000     0.0000     0.0000 </r>
        <r>   -13.8050     0.0019     0.0001     0.0001     0.0001     0.0000     0.0000     0.0000     0.0000     0.0000 </r>
        <r>   -13.7051     0.0136     0.0012     0.0012     0.0012     0.0000     0.0000     0.0001     0.0000     0.0001 </r>
        <r>   -13.6053     0.0253     0.0022     0.0022     0.0022     0.0000     0.0000     0.0002     0.0000     0.0002 </r>
        <r>   -13.5055     0.0095     0.0009     0.0009     0.0009     0.0000     0.0000     0.0001     0.0000     0.0001 </r>
        <r>   -13.4056     0.0091     0.0020     0.0020     0.0020     0.0000     0.0000     0.0001     0.0000     0.0001 </r>
        <r>   -13.3058     0.0159     0.0037     0.0037     0.0037     0.0000     0.0000     0.0002     0.0000     0.0002 </r>
        <r>   -13.2060     0.0094     0.0026     0.0026     0.0026     0.0000     0.0000     0.0004     0.0000     0.0004 </r>
        <r>   -13.1061     0.0144     0.0045     0.0045     0.0045     0.0000     0.0000     0.0015     0.0000     0.0015 </r>
        <r>   -13.0063     0.0141     0.0072     0.0072     0.0072     0.0000     0.0000     0.0023     0.0000     0.0023 </r>
        <r>   -12.9065     0.0120     0.0130     0.0130     0.0130     0.0000     0.0000     0.0032     0.0000     0.0032 </r>
        <r>   -12.8066     0.0060     0.0100     0.0100     0.0100     0.0000     0.0000     0.0042     0.0000     0.0042 </r>
        <r>   -12.7068     0.0060     0.0088     0.0088     0.0088     0.0000     0.0000     0.0093     0.0000     0.0093 </r>
        <r>   -12.6070     0.0038     0.0054     0.0054     0.0054     0.0000     0.0000     0.0070     0.0000     0.0070 </r>
        <r>   -12.5071     0.0005     0.0009     0.0009     0.0009     0.0000     0.0000     0.0012     0.0000     0.0012 </r>
        <r>   -12.4073     0.0000     0.0000     0.0000     0.0000     0.0000     0.0000     0.0000     0.0000     0.0000 </r>
        <r>   -12.3075     0.0000     0.0000     0.0000     0.0000     0.0000     0.0000     0.0000     0.0000     0.0000 </r>
        <r>   -12.2076     0.0000     0.0000     0.0000     0.0000     0.0000     0.0000     0.0000     0.0000     0.0000 </r>
        <r>   -12.1078     0.0000     0.0000     0.0000     0.0000     0.0000     0.0000     0.0000     0.0000     0.0000 </r>
        <r>   -12.0080     0.0000     0.0000     0.0000     0.0000     0.0000     0.0000     0.0000     0.0000     0.0000 </r>
        <r>   -11.9081     0.0000     0.0000     0.0000     0.0000     0.0000     0.0000     0.0000     0.0000     0.0000 </r>
        <r>   -11.8083     0.0000     0.0000     0.0000     0.0000     0.0000     0.0000     0.0000     0.0000     0.0000 </r>
        <r>   -11.7085     0.0000     0.0000     0.0000     0.0000     0.0000     0.0000     0.0000     0.0000     0.0000 </r>
        <r>   -11.6086     0.0000     0.0000     0.0000     0.0000     0.0000     0.0000     0.0000     0.0000     0.0000 </r>
        <r>   -11.5088     0.0000     0.0000     0.0000     0.0000     0.0000     0.0000     0.0000     0.0000     0.0000 </r>
        <r>   -11.4090     0.0000     0.0000     0.0000     0.0000     0.0000     0.0000     0.0000     0.0000     0.0000 </r>
        <r>   -11.3091     0.0000     0.0000     0.0000     0.0000     0.0000     0.0000     0.0000     0.0000     0.0000 </r>
        <r>   -11.2093     0.0000     0.0000     0.0000     0.0000     0.0000     0.0000     0.0000     0.0000     0.0000 </r>
        <r>   -11.1095     0.0000     0.0000     0.0000     0.0000     0.0000     0.0000     0.0000     0.0000     0.0000 </r>
        <r>   -11.0096     0.0000     0.0000     0.0000     0.0000     0.0000     0.0000     0.0000     0.0000     0.0000 </r>
        <r>   -10.9098     0.0000     0.0000     0.0000     0.0000     0.0000     0.0000     0.0000     0.0000     0.0000 </r>
        <r>   -10.8100     0.0000     0.0000     0.0000     0.0000     0.0000     0.0000     0.0000     0.0000     0.0000 </r>
        <r>   -10.7101     0.0000     0.0000     0.0000     0.0000     0.0000     0.0000     0.0000     0.0000     0.0000 </r>
        <r>   -10.6103     0.0000     0.0000     0.0000     0.0000     0.0000     0.0000     0.0000     0.0000     0.0000 </r>
        <r>   -10.5104     0.0000     0.0000     0.0000     0.0000     0.0000     0.0000     0.0000     0.0000     0.0000 </r>
        <r>   -10.4106     0.0000     0.0000     0.0000     0.0000     0.0000     0.0000     0.0000     0.0000     0.0000 </r>
        <r>   -10.3108     0.0000     0.0000     0.0000     0.0000     0.0000     0.0000     0.0000     0.0000     0.0000 </r>
        <r>   -10.2109     0.0000     0.0000     0.0000     0.0000     0.0000     0.0000     0.0000     0.0000     0.0000 </r>
        <r>   -10.1111     0.0000     0.0000     0.0000     0.0000     0.0000     0.0000     0.0000     0.0000     0.0000 </r>
        <r>   -10.0113     0.0000     0.0000     0.0000     0.0000     0.0000     0.0000     0.0000     0.0000     0.0000 </r>
        <r>    -9.9114     0.0000     0.0000     0.0000     0.0000     0.0000     0.0000     0.0000     0.0000     0.0000 </r>
        <r>    -9.8116     0.0000     0.0000     0.0000     0.0000     0.0000     0.0000     0.0000     0.0000     0.0000 </r>
        <r>    -9.7118     0.0000     0.0000     0.0000     0.0000     0.0000     0.0000     0.0000     0.0000     0.0000 </r>
        <r>    -9.6119     0.0000     0.0000     0.0000     0.0000     0.0000     0.0000     0.0000     0.0000     0.0000 </r>
        <r>    -9.5121     0.0000     0.0000     0.0000     0.0000     0.0000     0.0000     0.0000     0.0000     0.0000 </r>
        <r>    -9.4123     0.0000     0.0000     0.0000     0.0000     0.0000     0.0000     0.0000     0.0000     0.0000 </r>
        <r>    -9.3124     0.0000     0.0000     0.0000     0.0000     0.0000     0.0000     0.0000     0.0000     0.0000 </r>
        <r>    -9.2126     0.0000     0.0000     0.0000     0.0000     0.0000     0.0000     0.0000     0.0000     0.0000 </r>
        <r>    -9.1128     0.0000     0.0000     0.0000     0.0000     0.0000     0.0000     0.0000     0.0000     0.0000 </r>
        <r>    -9.0129     0.0000     0.0000     0.0000     0.0000     0.0000     0.0000     0.0000     0.0000     0.0000 </r>
        <r>    -8.9131     0.0000     0.0000     0.0000     0.0000     0.0000     0.0000     0.0000     0.0000     0.0000 </r>
        <r>    -8.8133     0.0000     0.0000     0.0000     0.0000     0.0000     0.0000     0.0000     0.0000     0.0000 </r>
        <r>    -8.7134     0.0000     0.0000     0.0000     0.0000     0.0000     0.0000     0.0000     0.0000     0.0000 </r>
        <r>    -8.6136     0.0000     0.0000     0.0000     0.0000     0.0000     0.0000     0.0000     0.0000     0.0000 </r>
        <r>    -8.5138     0.0000     0.0000     0.0000     0.0000     0.0000     0.0000     0.0000     0.0000     0.0000 </r>
        <r>    -8.4139     0.0000     0.0000     0.0000     0.0000     0.0000     0.0000     0.0000     0.0000     0.0000 </r>
        <r>    -8.3141     0.0000     0.0000     0.0000     0.0000     0.0000     0.0000     0.0000     0.0000     0.0000 </r>
        <r>    -8.2143     0.0000     0.0000     0.0000     0.0000     0.0000     0.0000     0.0000     0.0000     0.0000 </r>
        <r>    -8.1144     0.0000     0.0000     0.0000     0.0000     0.0000     0.0000     0.0000     0.0000     0.0000 </r>
        <r>    -8.0146     0.0000     0.0000     0.0000     0.0000     0.0000     0.0000     0.0000     0.0000     0.0000 </r>
        <r>    -7.9148     0.0000     0.0000     0.0000     0.0000     0.0000     0.0000     0.0000     0.0000     0.0000 </r>
        <r>    -7.8149     0.0000     0.0000     0.0000     0.0000     0.0000     0.0000     0.0000     0.0000     0.0000 </r>
        <r>    -7.7151     0.0000     0.0000     0.0000     0.0000     0.0000     0.0000     0.0000     0.0000     0.0000 </r>
        <r>    -7.6153     0.0000     0.0000     0.0000     0.0000     0.0000     0.0000     0.0000     0.0000     0.0000 </r>
        <r>    -7.5154     0.0000     0.0000     0.0000     0.0000     0.0000     0.0000     0.0000     0.0000     0.0000 </r>
        <r>    -7.4156     0.0000     0.0000     0.0000     0.0000     0.0000     0.0000     0.0000     0.0000     0.0000 </r>
        <r>    -7.3158     0.0000     0.0000     0.0000     0.0000     0.0000     0.0000     0.0000     0.0000     0.0000 </r>
        <r>    -7.2159     0.0000     0.0000     0.0000     0.0000     0.0000     0.0000     0.0000     0.0000     0.0000 </r>
        <r>    -7.1161     0.0000     0.0000     0.0000     0.0000     0.0000     0.0000     0.0000     0.0000     0.0000 </r>
        <r>    -7.0163     0.0000     0.0000     0.0000     0.0000     0.0000     0.0000     0.0000     0.0000     0.0000 </r>
        <r>    -6.9164     0.0000     0.0000     0.0000     0.0000     0.0000     0.0000     0.0000     0.0000     0.0000 </r>
        <r>    -6.8166     0.0000     0.0000     0.0000     0.0000     0.0000     0.0000     0.0000     0.0000     0.0000 </r>
        <r>    -6.7168     0.0000     0.0000     0.0000     0.0000     0.0000     0.0000     0.0000     0.0000     0.0000 </r>
        <r>    -6.6169     0.0000     0.0000     0.0000     0.0000     0.0000     0.0000     0.0000     0.0000     0.0000 </r>
        <r>    -6.5171     0.0000     0.0000     0.0000     0.0000     0.0000     0.0000     0.0000     0.0000     0.0000 </r>
        <r>    -6.4173     0.0000     0.0000     0.0000     0.0000     0.0000     0.0000     0.0000     0.0000     0.0000 </r>
        <r>    -6.3174     0.0000     0.0000     0.0000     0.0000     0.0000     0.0000     0.0000     0.0000     0.0000 </r>
        <r>    -6.2176     0.0000     0.0000     0.0000     0.0000     0.0000     0.0000     0.0000     0.0000     0.0000 </r>
        <r>    -6.1178     0.0000     0.0000     0.0000     0.0000     0.0000     0.0000     0.0000     0.0000     0.0000 </r>
        <r>    -6.0179     0.0000     0.0000     0.0000     0.0000     0.0000     0.0000     0.0000     0.0000     0.0000 </r>
        <r>    -5.9181     0.0000     0.0000     0.0000     0.0000     0.0000     0.0000     0.0000     0.0000     0.0000 </r>
        <r>    -5.8183     0.0000     0.0000     0.0000     0.0000     0.0000     0.0000     0.0000     0.0000     0.0000 </r>
        <r>    -5.7184     0.0000     0.0000     0.0000     0.0000     0.0000     0.0000     0.0000     0.0000     0.0000 </r>
        <r>    -5.6186     0.0000     0.0000     0.0000     0.0000     0.0000     0.0000     0.0000     0.0000     0.0000 </r>
        <r>    -5.5188     0.0000     0.0000     0.0000     0.0000     0.0000     0.0000     0.0000     0.0000     0.0000 </r>
        <r>    -5.4189     0.0000     0.0000     0.0000     0.0000     0.0000     0.0000     0.0000     0.0000     0.0000 </r>
        <r>    -5.3191     0.0000     0.0000     0.0000     0.0000     0.0000     0.0000     0.0000     0.0000     0.0000 </r>
        <r>    -5.2193     0.0000     0.0000     0.0000     0.0000     0.0000     0.0000     0.0000     0.0000     0.0000 </r>
        <r>    -5.1194     0.0000     0.0000     0.0000     0.0000     0.0000     0.0000     0.0000     0.0000     0.0000 </r>
        <r>    -5.0196     0.0000     0.0000     0.0000     0.0000     0.0000     0.0000     0.0000     0.0000     0.0000 </r>
        <r>    -4.9197     0.0000     0.0000     0.0000     0.0000     0.0000     0.0000     0.0000     0.0000     0.0000 </r>
        <r>    -4.8199     0.0000     0.0000     0.0000     0.0000     0.0000     0.0000     0.0000     0.0000     0.0000 </r>
        <r>    -4.7201     0.0000     0.0000     0.0000     0.0000     0.0000     0.0000     0.0000     0.0000     0.0000 </r>
        <r>    -4.6202     0.0000     0.0000     0.0000     0.0000     0.0000     0.0000     0.0000     0.0000     0.0000 </r>
        <r>    -4.5204     0.0000     0.0000     0.0000     0.0000     0.0000     0.0000     0.0000     0.0000     0.0000 </r>
        <r>    -4.4206     0.0000     0.0000     0.0000     0.0000     0.0000     0.0000     0.0000     0.0000     0.0000 </r>
        <r>    -4.3207     0.0000     0.0000     0.0000     0.0000     0.0000     0.0000     0.0000     0.0000     0.0000 </r>
        <r>    -4.2209     0.0000     0.0000     0.0000     0.0000     0.0000     0.0000     0.0000     0.0000     0.0000 </r>
        <r>    -4.1211     0.0000     0.0000     0.0000     0.0000     0.0000     0.0000     0.0000     0.0000     0.0000 </r>
        <r>    -4.0212     0.0000     0.0000     0.0000     0.0000     0.0000     0.0000     0.0000     0.0000     0.0000 </r>
        <r>    -3.9214     0.0000     0.0000     0.0000     0.0000     0.0000     0.0000     0.0000     0.0000     0.0000 </r>
        <r>    -3.8216     0.0000     0.0000     0.0000     0.0000     0.0000     0.0000     0.0000     0.0000     0.0000 </r>
        <r>    -3.7217     0.0000     0.0000     0.0000     0.0000     0.0000     0.0000     0.0000     0.0000     0.0000 </r>
        <r>    -3.6219     0.0000     0.0000     0.0000     0.0000     0.0000     0.0000     0.0000     0.0000     0.0000 </r>
        <r>    -3.5221     0.0000     0.0000     0.0000     0.0000     0.0000     0.0000     0.0000     0.0000     0.0000 </r>
        <r>    -3.4222     0.0000     0.0000     0.0000     0.0000     0.0000     0.0000     0.0000     0.0000     0.0000 </r>
        <r>    -3.3224     0.0000     0.0000     0.0000     0.0000     0.0000     0.0000     0.0000     0.0000     0.0000 </r>
        <r>    -3.2226     0.0000     0.0000     0.0000     0.0000     0.0000     0.0000     0.0000     0.0000     0.0000 </r>
        <r>    -3.1227     0.0000     0.0000     0.0000     0.0000     0.0000     0.0000     0.0000     0.0000     0.0000 </r>
        <r>    -3.0229     0.0000     0.0000     0.0000     0.0000     0.0000     0.0000     0.0000     0.0000     0.0000 </r>
        <r>    -2.9231     0.0000     0.0000     0.0000     0.0000     0.0000     0.0000     0.0000     0.0000     0.0000 </r>
        <r>    -2.8232     0.0000     0.0000     0.0000     0.0000     0.0000     0.0000     0.0000     0.0000     0.0000 </r>
        <r>    -2.7234     0.0000     0.0000     0.0000     0.0000     0.0000     0.0000     0.0000     0.0000     0.0000 </r>
        <r>    -2.6236     0.0000     0.0000     0.0000     0.0000     0.0000     0.0000     0.0000     0.0000     0.0000 </r>
        <r>    -2.5237     0.0000     0.0000     0.0000     0.0000     0.0000     0.0000     0.0000     0.0000     0.0000 </r>
        <r>    -2.4239     0.0000     0.0000     0.0000     0.0000     0.0000     0.0000     0.0000     0.0000     0.0000 </r>
        <r>    -2.3241     0.0000     0.0000     0.0000     0.0000     0.0000     0.0000     0.0000     0.0000     0.0000 </r>
        <r>    -2.2242     0.0000     0.0000     0.0000     0.0000     0.0000     0.0000     0.0000     0.0000     0.0000 </r>
        <r>    -2.1244     0.0000     0.0000     0.0000     0.0000     0.0000     0.0000     0.0000     0.0000     0.0000 </r>
        <r>    -2.0246     0.0000     0.0000     0.0000     0.0000     0.0000     0.0000     0.0000     0.0000     0.0000 </r>
        <r>    -1.9247     0.0000     0.0000     0.0000     0.0000     0.0000     0.0000     0.0000     0.0000     0.0000 </r>
        <r>    -1.8249     0.0000     0.0000     0.0000     0.0000     0.0000     0.0000     0.0000     0.0000     0.0000 </r>
        <r>    -1.7251     0.0000     0.0000     0.0000     0.0000     0.0000     0.0000     0.0000     0.0000     0.0000 </r>
        <r>    -1.6252     0.0005     0.0000     0.0000     0.0000     0.0000     0.0000     0.0000     0.0000     0.0000 </r>
        <r>    -1.5254     0.0157     0.0004     0.0004     0.0004     0.0005     0.0005     0.0000     0.0005     0.0000 </r>
        <r>    -1.4256     0.0767     0.0021     0.0021     0.0021     0.0026     0.0026     0.0000     0.0026     0.0000 </r>
        <r>    -1.3257     0.0689     0.0018     0.0018     0.0018     0.0024     0.0024     0.0000     0.0024     0.0000 </r>
        <r>    -1.2259     0.0204     0.0003     0.0003     0.0003     0.0007     0.0007     0.0000     0.0007     0.0000 </r>
        <r>    -1.1261     0.0304     0.0007     0.0007     0.0007     0.0010     0.0010     0.0000     0.0010     0.0000 </r>
        <r>    -1.0262     0.0212     0.0084     0.0084     0.0084     0.0007     0.0007     0.0003     0.0007     0.0003 </r>
        <r>    -0.9264     0.0331     0.0251     0.0251     0.0251     0.0012     0.0012     0.0011     0.0012     0.0011 </r>
        <r>    -0.8266     0.1473     0.0240     0.0240     0.0240     0.0046     0.0046     0.0028     0.0046     0.0028 </r>
        <r>    -0.7267     0.1858     0.0179     0.0179     0.0179     0.0057     0.0057     0.0036     0.0057     0.0036 </r>
        <r>    -0.6269     0.0765     0.0248     0.0248     0.0248     0.0032     0.0032     0.0014     0.0032     0.0014 </r>
        <r>    -0.5271     0.0665     0.0376     0.0376     0.0376     0.0032     0.0032     0.0021     0.0032     0.0021 </r>
        <r>    -0.4272     0.0640     0.0188     0.0188     0.0188     0.0015     0.0015     0.0041     0.0015     0.0041 </r>
        <r>    -0.3274     0.0591     0.0049     0.0049     0.0049     0.0012     0.0012     0.0025     0.0012     0.0025 </r>
        <r>    -0.2276     0.0802     0.0012     0.0012     0.0012     0.0020     0.0020     0.0015     0.0020     0.0015 </r>
        <r>    -0.1277     0.0313     0.0003     0.0003     0.0003     0.0008     0.0008     0.0005     0.0008     0.0005 </r>
        <r>    -0.0279     0.0022     0.0000     0.0000     0.0000     0.0001     0.0001     0.0000     0.0001     0.0000 </r>
        <r>     0.0719     0.0000     0.0000     0.0000     0.0000     0.0000     0.0000     0.0000     0.0000     0.0000 </r>
        <r>     0.1718     0.0000     0.0000     0.0000     0.0000     0.0000     0.0000     0.0000     0.0000     0.0000 </r>
        <r>     0.2716     0.0010     0.0013     0.0013     0.0013     0.0001     0.0001     0.0001     0.0001     0.0001 </r>
        <r>     0.3714     0.0119     0.0154     0.0154     0.0154     0.0015     0.0015     0.0015     0.0015     0.0015 </r>
        <r>     0.4713     0.0297     0.0380     0.0380     0.0380     0.0038     0.0038     0.0044     0.0038     0.0044 </r>
[...]
        <r>  0.0012  0.0001  0.0008  0.0007  0.0015  0.0010  0.0000  0.0000  0.0000 </r>
        <r>  0.0014  0.0016  0.0004  0.0009  0.0016  0.0004  0.0000  0.0006  0.0000 </r>
        <r>  0.0007  0.0006  0.0000  0.0004  0.0022  0.0005  0.0000  0.0001  0.0001 </r>
        <r>  0.0021  0.0005  0.0004  0.0003  0.0026  0.0005  0.0001  0.0002  0.0000 </r>
        <r>  0.0002  0.0006  0.0005  0.0016  0.0003  0.0005  0.0000  0.0001  0.0000 </r>
        <r>  0.0001  0.0020  0.0000  0.0024  0.0002  0.0005  0.0000  0.0002  0.0001 </r>
        <r>  0.0001  0.0020  0.0000  0.0024  0.0002  0.0005  0.0000  0.0002  0.0001 </r>
        <r>  0.0002  0.0006  0.0005  0.0016  0.0003  0.0005  0.0000  0.0001  0.0000 </r>
        <r>  0.0021  0.0005  0.0004  0.0003  0.0026  0.0005  0.0001  0.0003  0.0000 </r>
        <r>  0.0007  0.0006  0.0000  0.0004  0.0022  0.0005  0.0000  0.0001  0.0001 </r>
        <r>  0.0000  0.0008  0.0006  0.0002  0.0000  0.0000  0.0000  0.0000  0.0000 </r>
        <r>  0.0018  0.0025  0.0006  0.0051  0.0000  0.0000  0.0000  0.0000  0.0000 </r>
        <r>  0.0013  0.0009  0.0003  0.0050  0.0000  0.0000  0.0000  0.0000  0.0000 </r>
        <r>  0.0002  0.0025  0.0003  0.0002  0.0000  0.0000  0.0000  0.0000  0.0000 </r>
        <r>  0.0002  0.0025  0.0003  0.0002  0.0000  0.0000  0.0000  0.0000  0.0000 </r>
        <r>  0.0013  0.0009  0.0003  0.0050  0.0000  0.0000  0.0000  0.0000  0.0000 </r>
        <r>  0.0018  0.0025  0.0006  0.0051  0.0000  0.0000  0.0000  0.0000  0.0000 </r>
        <r>  0.0000  0.0008  0.0006  0.0002  0.0000  0.0000  0.0000  0.0000  0.0000 </r>
        <r>  0.0010  0.0013  0.0009  0.0022  0.0000  0.0000  0.0000  0.0000  0.0000 </r>
        <r>  0.0006  0.0005  0.0009  0.0022  0.0000  0.0000  0.0000  0.0000  0.0000 </r>
        <r>  0.0002  0.0013  0.0007  0.0022  0.0000  0.0000  0.0000  0.0000  0.0000 </r>
        <r>  0.0006  0.0005  0.0007  0.0021  0.0000  0.0000  0.0000  0.0000  0.0000 </r>
        <r>  0.0006  0.0005  0.0007  0.0021  0.0000  0.0000  0.0000  0.0000  0.0000 </r>
        <r>  0.0002  0.0013  0.0007  0.0021  0.0000  0.0000  0.0000  0.0000  0.0000 </r>
        <r>  0.0006  0.0005  0.0009  0.0022  0.0000  0.0000  0.0000  0.0000  0.0000 </r>
        <r>  0.0010  0.0014  0.0009  0.0022  0.0000  0.0000  0.0000  0.0000  0.0000 </r>
        <r>  0.0018  0.0024  0.0018  0.0026  0.0000  0.0000  0.0000  0.0000  0.0000 </r>
        <r>  0.0006  0.0002  0.0019  0.0010  0.0000  0.0000  0.0000  0.0000  0.0000 </r>
        <r>  0.0001  0.0024  0.0000  0.0010  0.0000  0.0000  0.0000  0.0000  0.0000 </r>
        <r>  0.0002  0.0002  0.0000  0.0027  0.0000  0.0000  0.0000  0.0000  0.0000 </r>
        <r>  0.0002  0.0002  0.0000  0.0027  0.0000  0.0000  0.0000  0.0000  0.0000 </r>
        <r>  0.0001  0.0024  0.0000  0.0010  0.0000  0.0000  0.0000  0.0000  0.0000 </r>
        <r>  0.0006  0.0002  0.0019  0.0010  0.0000  0.0000  0.0000  0.0000  0.0000 </r>
        <r>  0.0018  0.0024  0.0018  0.0026  0.0000  0.0000  0.0000  0.0000  0.0000 </r>
        <r>  0.0020  0.0041  0.0014  0.0042  0.0000  0.0000  0.0000  0.0000  0.0000 </r>
        <r>  0.0001  0.0005  0.0013  0.0020  0.0000  0.0000  0.0000  0.0000  0.0000 </r>
        <r>  0.0013  0.0041  0.0013  0.0020  0.0000  0.0000  0.0000  0.0000  0.0000 </r>
        <r>  0.0011  0.0005  0.0013  0.0040  0.0000  0.0000  0.0000  0.0000  0.0000 </r>
        <r>  0.0011  0.0005  0.0013  0.0040  0.0000  0.0000  0.0000  0.0000  0.0000 </r>
        <r>  0.0013  0.0041  0.0013  0.0020  0.0000  0.0000  0.0000  0.0000  0.0000 </r>
        <r>  0.0001  0.0005  0.0013  0.0020  0.0000  0.0000  0.0000  0.0000  0.0000 </r>
        <r>  0.0020  0.0041  0.0014  0.0042  0.0000  0.0000  0.0000  0.0000  0.0000 </r>
       </set>
       <set comment="band 161">
        <r>  0.0012  0.0004  0.0002  0.0008  0.0003  0.0028  0.0001  0.0007  0.0001 </r>
        <r>  0.0001  0.0017  0.0033  0.0004  0.0001  0.0000  0.0001  0.0003  0.0000 </r>
        <r>  0.0002  0.0004  0.0008  0.0003  0.0001  0.0001  0.0000  0.0010  0.0000 </r>
        <r>  0.0006  0.0005  0.0003  0.0004  0.0001  0.0019  0.0000  0.0002  0.0001 </r>
        <r>  0.0006  0.0005  0.0003  0.0004  0.0001  0.0019  0.0000  0.0002  0.0001 </r>
        <r>  0.0003  0.0004  0.0008  0.0003  0.0001  0.0001  0.0000  0.0010  0.0000 </r>
        <r>  0.0001  0.0017  0.0033  0.0003  0.0001  0.0000  0.0001  0.0003  0.0000 </r>
        <r>  0.0011  0.0004  0.0002  0.0008  0.0003  0.0028  0.0001  0.0007  0.0001 </r>
        <r>  0.0015  0.0002  0.0000  0.0002  0.0002  0.0025  0.0000  0.0009  0.0001 </r>
        <r>  0.0002  0.0025  0.0020  0.0004  0.0000  0.0002  0.0000  0.0001  0.0000 </r>
        <r>  0.0004  0.0015  0.0006  0.0001  0.0003  0.0000  0.0000  0.0012  0.0000 </r>
        <r>  0.0017  0.0001  0.0011  0.0006  0.0007  0.0027  0.0000  0.0000  0.0001 </r>
        <r>  0.0017  0.0001  0.0011  0.0006  0.0007  0.0027  0.0000  0.0000  0.0001 </r>
        <r>  0.0004  0.0015  0.0006  0.0001  0.0003  0.0000  0.0000  0.0012  0.0000 </r>
        <r>  0.0002  0.0025  0.0019  0.0004  0.0000  0.0002  0.0000  0.0001  0.0000 </r>
        <r>  0.0015  0.0002  0.0000  0.0002  0.0002  0.0025  0.0000  0.0009  0.0001 </r>
        <r>  0.0002  0.0007  0.0019  0.0004  0.0005  0.0009  0.0000  0.0008  0.0001 </r>
        <r>  0.0013  0.0007  0.0000  0.0007  0.0002  0.0015  0.0000  0.0006  0.0000 </r>
        <r>  0.0010  0.0003  0.0006  0.0001  0.0001  0.0019  0.0000  0.0008  0.0000 </r>
        <r>  0.0006  0.0008  0.0014  0.0018  0.0000  0.0005  0.0000  0.0003  0.0001 </r>
        <r>  0.0005  0.0008  0.0014  0.0018  0.0000  0.0005  0.0000  0.0003  0.0001 </r>
        <r>  0.0010  0.0003  0.0006  0.0001  0.0001  0.0019  0.0000  0.0008  0.0000 </r>
        <r>  0.0013  0.0007  0.0000  0.0007  0.0002  0.0015  0.0000  0.0006  0.0000 </r>
        <r>  0.0002  0.0007  0.0019  0.0004  0.0005  0.0008  0.0000  0.0008  0.0001 </r>
        <r>  0.0017  0.0006  0.0013  0.0011  0.0007  0.0019  0.0000  0.0001  0.0001 </r>
        <r>  0.0023  0.0011  0.0008  0.0000  0.0006  0.0013  0.0000  0.0011  0.0000 </r>
        <r>  0.0009  0.0016  0.0005  0.0011  0.0002  0.0009  0.0000  0.0002  0.0000 </r>
        <r>  0.0002  0.0004  0.0005  0.0000  0.0000  0.0013  0.0000  0.0012  0.0001 </r>
        <r>  0.0002  0.0004  0.0005  0.0000  0.0000  0.0013  0.0000  0.0011  0.0001 </r>
        <r>  0.0009  0.0016  0.0005  0.0011  0.0002  0.0009  0.0000  0.0002  0.0000 </r>
        <r>  0.0024  0.0011  0.0008  0.0000  0.0006  0.0013  0.0000  0.0011  0.0000 </r>
        <r>  0.0017  0.0006  0.0013  0.0011  0.0007  0.0019  0.0000  0.0001  0.0001 </r>
        <r>  0.0015  0.0016  0.0016  0.0025  0.0000  0.0000  0.0000  0.0000  0.0000 </r>
        <r>  0.0004  0.0010  0.0019  0.0010  0.0000  0.0000  0.0000  0.0000  0.0000 </r>
        <r>  0.0001  0.0016  0.0017  0.0009  0.0000  0.0000  0.0000  0.0000  0.0000 </r>
        <r>  0.0014  0.0010  0.0015  0.0027  0.0000  0.0000  0.0000  0.0000  0.0000 </r>
        <r>  0.0013  0.0010  0.0015  0.0027  0.0000  0.0000  0.0000  0.0000  0.0000 </r>
        <r>  0.0001  0.0016  0.0017  0.0009  0.0000  0.0000  0.0000  0.0000  0.0000 </r>
        <r>  0.0004  0.0010  0.0019  0.0010  0.0000  0.0000  0.0000  0.0000  0.0000 </r>
        <r>  0.0015  0.0016  0.0016  0.0025  0.0000  0.0000  0.0000  0.0000  0.0000 </r>
        <r>  0.0011  0.0015  0.0015  0.0017  0.0000  0.0000  0.0000  0.0000  0.0000 </r>
        <r>  0.0001  0.0019  0.0013  0.0007  0.0000  0.0000  0.0000  0.0000  0.0000 </r>
        <r>  0.0002  0.0014  0.0002  0.0006  0.0000  0.0000  0.0000  0.0000  0.0000 </r>
        <r>  0.0007  0.0020  0.0003  0.0019  0.0000  0.0000  0.0000  0.0000  0.0000 </r>
        <r>  0.0007  0.0020  0.0003  0.0019  0.0000  0.0000  0.0000  0.0000  0.0000 </r>
        <r>  0.0002  0.0014  0.0002  0.0006  0.0000  0.0000  0.0000  0.0000  0.0000 </r>
        <r>  0.0001  0.0019  0.0013  0.0007  0.0000  0.0000  0.0000  0.0000  0.0000 </r>
        <r>  0.0011  0.0015  0.0015  0.0017  0.0000  0.0000  0.0000  0.0000  0.0000 </r>
        <r>  0.0021  0.0013  0.0042  0.0029  0.0000  0.0000  0.0000  0.0000  0.0000 </r>
        <r>  0.0015  0.0026  0.0042  0.0007  0.0000  0.0000  0.0000  0.0000  0.0000 </r>
        <r>  0.0002  0.0013  0.0003  0.0007  0.0000  0.0000  0.0000  0.0000  0.0000 </r>
        <r>  0.0008  0.0024  0.0002  0.0032  0.0000  0.0000  0.0000  0.0000  0.0000 </r>
        <r>  0.0008  0.0024  0.0002  0.0032  0.0000  0.0000  0.0000  0.0000  0.0000 </r>
        <r>  0.0002  0.0014  0.0003  0.0007  0.0000  0.0000  0.0000  0.0000  0.0000 </r>
        <r>  0.0015  0.0026  0.0042  0.0007  0.0000  0.0000  0.0000  0.0000  0.0000 </r>
        <r>  0.0021  0.0013  0.0043  0.0029  0.0000  0.0000  0.0000  0.0000  0.0000 </r>
        <r>  0.0009  0.0010  0.0016  0.0013  0.0000  0.0000  0.0000  0.0000  0.0000 </r>
        <r>  0.0006  0.0036  0.0018  0.0007  0.0000  0.0000  0.0000  0.0000  0.0000 </r>
        <r>  0.0002  0.0011  0.0012  0.0006  0.0000  0.0000  0.0000  0.0000  0.0000 </r>
        <r>  0.0012  0.0034  0.0014  0.0014  0.0000  0.0000  0.0000  0.0000  0.0000 </r>
        <r>  0.0012  0.0034  0.0014  0.0014  0.0000  0.0000  0.0000  0.0000  0.0000 </r>
        <r>  0.0002  0.0011  0.0012  0.0006  0.0000  0.0000  0.0000  0.0000  0.0000 </r>
        <r>  0.0006  0.0036  0.0018  0.0007  0.0000  0.0000  0.0000  0.0000  0.0000 </r>
        <r>  0.0009  0.0010  0.0016  0.0013  0.0000  0.0000  0.0000  0.0000  0.0000 </r>
       </set>
       <set comment="band 162">
        <r>  0.0022  0.0000  0.0009  0.0003  0.0009  0.0003  0.0000  0.0021  0.0000 </r>
        <r>  0.0001  0.0006  0.0007  0.0016  0.0008  0.0001  0.0000  0.0009  0.0001 </r>
        <r>  0.0010  0.0002  0.0010  0.0001  0.0002  0.0000  0.0000  0.0014  0.0000 </r>
        <r>  0.0004  0.0011  0.0004  0.0023  0.0002  0.0005  0.0000  0.0014  0.0001 </r>
        <r>  0.0004  0.0011  0.0004  0.0023  0.0002  0.0005  0.0000  0.0014  0.0001 </r>
        <r>  0.0010  0.0002  0.0010  0.0001  0.0002  0.0000  0.0000  0.0014  0.0000 </r>
        <r>  0.0001  0.0006  0.0007  0.0016  0.0008  0.0001  0.0000  0.0009  0.0001 </r>
        <r>  0.0021  0.0000  0.0009  0.0003  0.0009  0.0003  0.0000  0.0021  0.0000 </r>
        <r>  0.0008  0.0003  0.0009  0.0012  0.0004  0.0003  0.0000  0.0016  0.0001 </r>
        <r>  0.0005  0.0011  0.0006  0.0009  0.0003  0.0001  0.0000  0.0011  0.0001 </r>
        <r>  0.0007  0.0000  0.0005  0.0007  0.0008  0.0000  0.0000  0.0011  0.0000 </r>
        <r>  0.0017  0.0006  0.0008  0.0016  0.0006  0.0005  0.0000  0.0019  0.0001 </r>
        <r>  0.0017  0.0006  0.0008  0.0015  0.0006  0.0005  0.0000  0.0019  0.0001 </r>
        <r>  0.0007  0.0000  0.0005  0.0007  0.0008  0.0000  0.0000  0.0011  0.0000 </r>
        <r>  0.0005  0.0011  0.0006  0.0009  0.0003  0.0001  0.0000  0.0011  0.0001 </r>
        <r>  0.0008  0.0003  0.0009  0.0012  0.0004  0.0003  0.0000  0.0016  0.0001 </r>
        <r>  0.0003  0.0009  0.0002  0.0014  0.0005  0.0003  0.0000  0.0017  0.0001 </r>
        <r>  0.0010  0.0003  0.0014  0.0006  0.0006  0.0001  0.0000  0.0011  0.0000 </r>
        <r>  0.0001  0.0008  0.0006  0.0024  0.0004  0.0000  0.0000  0.0008  0.0001 </r>
        <r>  0.0019  0.0000  0.0007  0.0001  0.0005  0.0004  0.0000  0.0020  0.0000 </r>
        <r>  0.0018  0.0000  0.0007  0.0001  0.0005  0.0004  0.0000  0.0020  0.0000 </r>
        <r>  0.0000  0.0008  0.0006  0.0024  0.0004  0.0000  0.0000  0.0008  0.0001 </r>
        <r>  0.0010  0.0003  0.0014  0.0006  0.0005  0.0001  0.0000  0.0011  0.0000 </r>
        <r>  0.0003  0.0009  0.0002  0.0013  0.0005  0.0003  0.0000  0.0017  0.0001 </r>
        <r>  0.0015  0.0007  0.0007  0.0009  0.0007  0.0002  0.0000  0.0010  0.0001 </r>
        <r>  0.0004  0.0000  0.0010  0.0009  0.0009  0.0001  0.0000  0.0017  0.0001 </r>
        <r>  0.0008  0.0008  0.0010  0.0011  0.0002  0.0002  0.0000  0.0020  0.0001 </r>
        <r>  0.0008  0.0005  0.0004  0.0014  0.0003  0.0003  0.0000  0.0009  0.0000 </r>
        <r>  0.0008  0.0005  0.0004  0.0014  0.0003  0.0003  0.0000  0.0009  0.0000 </r>
        <r>  0.0008  0.0008  0.0010  0.0011  0.0002  0.0002  0.0000  0.0020  0.0001 </r>
        <r>  0.0003  0.0000  0.0010  0.0009  0.0009  0.0001  0.0000  0.0017  0.0001 </r>
        <r>  0.0014  0.0007  0.0007  0.0008  0.0007  0.0002  0.0000  0.0010  0.0001 </r>
        <r>  0.0014  0.0022  0.0007  0.0030  0.0000  0.0000  0.0000  0.0000  0.0000 </r>
        <r>  0.0007  0.0011  0.0006  0.0019  0.0000  0.0000  0.0000  0.0000  0.0000 </r>
        <r>  0.0005  0.0026  0.0001  0.0018  0.0000  0.0000  0.0000  0.0000  0.0000 </r>
        <r>  0.0007  0.0011  0.0000  0.0031  0.0000  0.0000  0.0000  0.0000  0.0000 </r>
        <r>  0.0007  0.0011  0.0000  0.0032  0.0000  0.0000  0.0000  0.0000  0.0000 </r>
        <r>  0.0005  0.0026  0.0001  0.0018  0.0000  0.0000  0.0000  0.0000  0.0000 </r>
        <r>  0.0006  0.0011  0.0006  0.0019  0.0000  0.0000  0.0000  0.0000  0.0000 </r>
        <r>  0.0014  0.0021  0.0007  0.0030  0.0000  0.0000  0.0000  0.0000  0.0000 </r>
        <r>  0.0019  0.0035  0.0007  0.0036  0.0000  0.0000  0.0000  0.0000  0.0000 </r>
        <r>  0.0001  0.0002  0.0008  0.0016  0.0000  0.0000  0.0000  0.0000  0.0000 </r>
        <r>  0.0010  0.0036  0.0002  0.0017  0.0000  0.0000  0.0000  0.0000  0.0000 </r>
        <r>  0.0003  0.0003  0.0002  0.0034  0.0000  0.0000  0.0000  0.0000  0.0000 </r>
        <r>  0.0003  0.0003  0.0002  0.0034  0.0000  0.0000  0.0000  0.0000  0.0000 </r>
        <r>  0.0010  0.0036  0.0002  0.0017  0.0000  0.0000  0.0000  0.0000  0.0000 </r>
        <r>  0.0001  0.0002  0.0008  0.0016  0.0000  0.0000  0.0000  0.0000  0.0000 </r>
        <r>  0.0019  0.0035  0.0007  0.0036  0.0000  0.0000  0.0000  0.0000  0.0000 </r>
        <r>  0.0003  0.0006  0.0006  0.0013  0.0000  0.0000  0.0000  0.0000  0.0000 </r>
        <r>  0.0014  0.0031  0.0007  0.0044  0.0000  0.0000  0.0000  0.0000  0.0000 </r>
        <r>  0.0008  0.0008  0.0002  0.0042  0.0000  0.0000  0.0000  0.0000  0.0000 </r>
        <r>  0.0007  0.0027  0.0002  0.0014  0.0000  0.0000  0.0000  0.0000  0.0000 </r>
        <r>  0.0007  0.0027  0.0002  0.0014  0.0000  0.0000  0.0000  0.0000  0.0000 </r>
        <r>  0.0008  0.0007  0.0002  0.0042  0.0000  0.0000  0.0000  0.0000  0.0000 </r>
        <r>  0.0014  0.0032  0.0007  0.0044  0.0000  0.0000  0.0000  0.0000  0.0000 </r>
        <r>  0.0003  0.0006  0.0007  0.0013  0.0000  0.0000  0.0000  0.0000  0.0000 </r>
        <r>  0.0001  0.0001  0.0005  0.0026  0.0000  0.0000  0.0000  0.0000  0.0000 </r>
        <r>  0.0016  0.0031  0.0005  0.0025  0.0000  0.0000  0.0000  0.0000  0.0000 </r>
        <r>  0.0003  0.0001  0.0002  0.0025  0.0000  0.0000  0.0000  0.0000  0.0000 </r>
        <r>  0.0010  0.0035  0.0002  0.0027  0.0000  0.0000  0.0000  0.0000  0.0000 </r>
        <r>  0.0010  0.0035  0.0002  0.0027  0.0000  0.0000  0.0000  0.0000  0.0000 </r>
        <r>  0.0003  0.0001  0.0002  0.0025  0.0000  0.0000  0.0000  0.0000  0.0000 </r>
        <r>  0.0016  0.0031  0.0005  0.0025  0.0000  0.0000  0.0000  0.0000  0.0000 </r>
        <r>  0.0001  0.0001  0.0005  0.0026  0.0000  0.0000  0.0000  0.0000  0.0000 </r>
       </set>
      </set>
     </set>
    </set>
   </array>
  </projected>
 </calculation>
 <structure name="finalpos" >
  <crystal>
   <varray name="basis" >
    <v>       8.49378600       0.00000000       0.00000000 </v>
    <v>       0.00000000       8.49378600       0.00000000 </v>
    <v>       0.00000000       0.00000000       8.49378600 </v>
   </varray>
   <i name="volume">    612.77909991 </i>
   <varray name="rec_basis" >
    <v>       0.11773313       0.00000000       0.00000000 </v>
    <v>       0.00000000       0.11773313       0.00000000 </v>
    <v>       0.00000000       0.00000000       0.11773313 </v>
   </varray>
  </crystal>
  <varray name="positions" >
   <v>       0.00000000       0.00000000       0.00000000 </v>
   <v>       0.00000000       0.00000000       0.50000000 </v>
   <v>       0.00000000       0.50000000       0.00000000 </v>
   <v>       0.00000000       0.50000000       0.50000000 </v>
   <v>       0.50000000       0.00000000       0.00000000 </v>
   <v>       0.50000000       0.00000000       0.50000000 </v>
   <v>       0.50000000       0.50000000       0.00000000 </v>
   <v>       0.50000000       0.50000000       0.50000000 </v>
   <v>       0.00000000       0.25000000       0.25000000 </v>
   <v>       0.00000000       0.25000000       0.75000000 </v>
   <v>       0.00000000       0.75000000       0.25000000 </v>
   <v>       0.00000000       0.75000000       0.75000000 </v>
   <v>       0.50000000       0.25000000       0.25000000 </v>
   <v>       0.50000000       0.25000000       0.75000000 </v>
   <v>       0.50000000       0.75000000       0.25000000 </v>
   <v>       0.50000000       0.75000000       0.75000000 </v>
   <v>       0.25000000       0.00000000       0.25000000 </v>
   <v>       0.25000000       0.00000000       0.75000000 </v>
   <v>       0.25000000       0.50000000       0.25000000 </v>
   <v>       0.25000000       0.50000000       0.75000000 </v>
   <v>       0.75000000       0.00000000       0.25000000 </v>
   <v>       0.75000000       0.00000000       0.75000000 </v>
   <v>       0.75000000       0.50000000       0.25000000 </v>
   <v>       0.75000000       0.50000000       0.75000000 </v>
   <v>       0.25000000       0.25000000       0.00000000 </v>
   <v>       0.25000000       0.25000000       0.50000000 </v>
   <v>       0.25000000       0.75000000       0.00000000 </v>
   <v>       0.25000000       0.75000000       0.50000000 </v>
   <v>       0.75000000       0.25000000       0.00000000 </v>
   <v>       0.75000000       0.25000000       0.50000000 </v>
   <v>       0.75000000       0.75000000       0.00000000 </v>
   <v>       0.75000000       0.75000000       0.50000000 </v>
   <v>       0.25000000       0.00000000       0.00000000 </v>
   <v>       0.25000000       0.00000000       0.50000000 </v>
   <v>       0.25000000       0.50000000       0.00000000 </v>
   <v>       0.25000000       0.50000000       0.50000000 </v>
   <v>       0.75000000       0.00000000       0.00000000 </v>
   <v>       0.75000000       0.00000000       0.50000000 </v>
   <v>       0.75000000       0.50000000       0.00000000 </v>
   <v>       0.75000000       0.50000000       0.50000000 </v>
   <v>       0.25000000       0.25000000       0.25000000 </v>
   <v>       0.25000000       0.25000000       0.75000000 </v>
   <v>       0.25000000       0.75000000       0.25000000 </v>
   <v>       0.25000000       0.75000000       0.75000000 </v>
   <v>       0.75000000       0.25000000       0.25000000 </v>
   <v>       0.75000000       0.25000000       0.75000000 </v>
   <v>       0.75000000       0.75000000       0.25000000 </v>
   <v>       0.75000000       0.75000000       0.75000000 </v>
   <v>       0.00000000       0.00000000       0.25000000 </v>
   <v>       0.00000000       0.00000000       0.75000000 </v>
   <v>       0.00000000       0.50000000       0.25000000 </v>
   <v>       0.00000000       0.50000000       0.75000000 </v>
   <v>       0.50000000       0.00000000       0.25000000 </v>
   <v>       0.50000000       0.00000000       0.75000000 </v>
   <v>       0.50000000       0.50000000       0.25000000 </v>
   <v>       0.50000000       0.50000000       0.75000000 </v>
   <v>       0.00000000       0.25000000       0.00000000 </v>
   <v>       0.00000000       0.25000000       0.50000000 </v>
   <v>       0.00000000       0.75000000       0.00000000 </v>
   <v>       0.00000000       0.75000000       0.50000000 </v>
   <v>       0.50000000       0.25000000       0.00000000 </v>
   <v>       0.50000000       0.25000000       0.50000000 </v>
   <v>       0.50000000       0.75000000       0.00000000 </v>
   <v>       0.50000000       0.75000000       0.50000000 </v>
  </varray>
 </structure>
</modeling>
