  63  63   1   0
  0.9726449E+01  0.8493727E-09  0.8493727E-09  0.8493727E-09  0.5000000E-15
  1.000000000000000E-004
  CAR 
 unknown system                          
     17.04274173    -15.57593980  301      3.23756433      1.00000000
    -15.576  0.0000E+00  0.0000E+00  0.0000E+00  0.0000E+00
    -15.467  0.0000E+00  0.0000E+00  0.0000E+00  0.0000E+00
    -15.358  0.0000E+00  0.0000E+00  0.0000E+00  0.0000E+00
    -15.250  0.0000E+00  0.0000E+00  0.0000E+00  0.0000E+00
    -15.141  0.0000E+00  0.0000E+00  0.0000E+00  0.0000E+00
    -15.032  0.0000E+00  0.0000E+00  0.0000E+00  0.0000E+00
    -14.924  0.0000E+00  0.0000E+00  0.0000E+00  0.0000E+00
    -14.815  0.0000E+00  0.0000E+00  0.0000E+00  0.0000E+00
    -14.706  0.0000E+00  0.0000E+00  0.0000E+00  0.0000E+00
    -14.597  0.9246E-13  0.9246E-13  0.1005E-13  0.1005E-13
    -14.489  0.2063E-08  0.2063E-08  0.2243E-09  0.2243E-09
    -14.380  0.4620E-05  0.4620E-05  0.5025E-06  0.5025E-06
    -14.271  0.1085E-02  0.1085E-02  0.1184E-03  0.1184E-03
    -14.162  0.2903E-01  0.2903E-01  0.3275E-02  0.3275E-02
    -14.054  0.1008E+00  0.1008E+00  0.1424E-01  0.1424E-01
    -13.945  0.5499E-01  0.5499E-01  0.2022E-01  0.2022E-01
    -13.836  0.9392E-01  0.9392E-01  0.3043E-01  0.3043E-01
    -13.728  0.2275E+00  0.2275E+00  0.5517E-01  0.5517E-01
    -13.619  0.1667E+00  0.1667E+00  0.7329E-01  0.7329E-01
    -13.510  0.1453E+00  0.1453E+00  0.8909E-01  0.8909E-01
    -13.401  0.3178E+00  0.3178E+00  0.1236E+00  0.1236E+00
    -13.293  0.3239E+00  0.3239E+00  0.1589E+00  0.1589E+00
    -13.184  0.4145E+00  0.4145E+00  0.2039E+00  0.2039E+00
    -13.075  0.5220E+00  0.5220E+00  0.2607E+00  0.2607E+00
    -12.966  0.6408E+00  0.6408E+00  0.3304E+00  0.3304E+00
    -12.858  0.8466E+00  0.8466E+00  0.4224E+00  0.4224E+00
    -12.749  0.7706E+00  0.7706E+00  0.5062E+00  0.5062E+00
    -12.640  0.7323E+00  0.7323E+00  0.5858E+00  0.5858E+00
    -12.532  0.2951E+00  0.2951E+00  0.6179E+00  0.6179E+00
    -12.423  0.1898E-01  0.1898E-01  0.6200E+00  0.6200E+00
    -12.314  0.1480E-03  0.1480E-03  0.6200E+00  0.6200E+00
    -12.205  0.1256E-06  0.1256E-06  0.6200E+00  0.6200E+00
    -12.097  0.1098E-10  0.1098E-10  0.6200E+00  0.6200E+00
    -11.988  0.8169E-16  0.8169E-16  0.6200E+00  0.6200E+00
    -11.879  0.0000E+00  0.0000E+00  0.6200E+00  0.6200E+00
    -11.770  0.0000E+00  0.0000E+00  0.6200E+00  0.6200E+00
    -11.662  0.0000E+00  0.0000E+00  0.6200E+00  0.6200E+00
    -11.553  0.0000E+00  0.0000E+00  0.6200E+00  0.6200E+00
    -11.444  0.0000E+00  0.0000E+00  0.6200E+00  0.6200E+00
    -11.336  0.0000E+00  0.0000E+00  0.6200E+00  0.6200E+00
    -11.227  0.0000E+00  0.0000E+00  0.6200E+00  0.6200E+00
    -11.118  0.0000E+00  0.0000E+00  0.6200E+00  0.6200E+00
    -11.009  0.0000E+00  0.0000E+00  0.6200E+00  0.6200E+00
    -10.901  0.0000E+00  0.0000E+00  0.6200E+00  0.6200E+00
    -10.792  0.0000E+00  0.0000E+00  0.6200E+00  0.6200E+00
    -10.683  0.0000E+00  0.0000E+00  0.6200E+00  0.6200E+00
    -10.574  0.0000E+00  0.0000E+00  0.6200E+00  0.6200E+00
    -10.466  0.0000E+00  0.0000E+00  0.6200E+00  0.6200E+00
    -10.357  0.0000E+00  0.0000E+00  0.6200E+00  0.6200E+00
    -10.248  0.0000E+00  0.0000E+00  0.6200E+00  0.6200E+00
    -10.139  0.0000E+00  0.0000E+00  0.6200E+00  0.6200E+00
    -10.031  0.0000E+00  0.0000E+00  0.6200E+00  0.6200E+00
     -9.922  0.0000E+00  0.0000E+00  0.6200E+00  0.6200E+00
     -9.813  0.0000E+00  0.0000E+00  0.6200E+00  0.6200E+00
     -9.705  0.0000E+00  0.0000E+00  0.6200E+00  0.6200E+00
     -9.596  0.0000E+00  0.0000E+00  0.6200E+00  0.6200E+00
     -9.487  0.0000E+00  0.0000E+00  0.6200E+00  0.6200E+00
     -9.378  0.0000E+00  0.0000E+00  0.6200E+00  0.6200E+00
     -9.270  0.0000E+00  0.0000E+00  0.6200E+00  0.6200E+00
     -9.161  0.0000E+00  0.0000E+00  0.6200E+00  0.6200E+00
     -9.052  0.0000E+00  0.0000E+00  0.6200E+00  0.6200E+00
     -8.943  0.0000E+00  0.0000E+00  0.6200E+00  0.6200E+00
     -8.835  0.0000E+00  0.0000E+00  0.6200E+00  0.6200E+00
     -8.726  0.0000E+00  0.0000E+00  0.6200E+00  0.6200E+00
     -8.617  0.0000E+00  0.0000E+00  0.6200E+00  0.6200E+00
     -8.509  0.0000E+00  0.0000E+00  0.6200E+00  0.6200E+00
     -8.400  0.0000E+00  0.0000E+00  0.6200E+00  0.6200E+00
     -8.291  0.0000E+00  0.0000E+00  0.6200E+00  0.6200E+00
     -8.182  0.0000E+00  0.0000E+00  0.6200E+00  0.6200E+00
     -8.074  0.0000E+00  0.0000E+00  0.6200E+00  0.6200E+00
     -7.965  0.0000E+00  0.0000E+00  0.6200E+00  0.6200E+00
     -7.856  0.0000E+00  0.0000E+00  0.6200E+00  0.6200E+00
     -7.747  0.0000E+00  0.0000E+00  0.6200E+00  0.6200E+00
     -7.639  0.0000E+00  0.0000E+00  0.6200E+00  0.6200E+00
     -7.530  0.0000E+00  0.0000E+00  0.6200E+00  0.6200E+00
     -7.421  0.0000E+00  0.0000E+00  0.6200E+00  0.6200E+00
     -7.313  0.0000E+00  0.0000E+00  0.6200E+00  0.6200E+00
     -7.204  0.0000E+00  0.0000E+00  0.6200E+00  0.6200E+00
     -7.095  0.0000E+00  0.0000E+00  0.6200E+00  0.6200E+00
     -6.986  0.0000E+00  0.0000E+00  0.6200E+00  0.6200E+00
     -6.878  0.0000E+00  0.0000E+00  0.6200E+00  0.6200E+00
     -6.769  0.0000E+00  0.0000E+00  0.6200E+00  0.6200E+00
     -6.660  0.0000E+00  0.0000E+00  0.6200E+00  0.6200E+00
     -6.551  0.0000E+00  0.0000E+00  0.6200E+00  0.6200E+00
     -6.443  0.0000E+00  0.0000E+00  0.6200E+00  0.6200E+00
     -6.334  0.0000E+00  0.0000E+00  0.6200E+00  0.6200E+00
     -6.225  0.0000E+00  0.0000E+00  0.6200E+00  0.6200E+00
     -6.117  0.0000E+00  0.0000E+00  0.6200E+00  0.6200E+00
     -6.008  0.0000E+00  0.0000E+00  0.6200E+00  0.6200E+00
     -5.899  0.0000E+00  0.0000E+00  0.6200E+00  0.6200E+00
     -5.790  0.0000E+00  0.0000E+00  0.6200E+00  0.6200E+00
     -5.682  0.0000E+00  0.0000E+00  0.6200E+00  0.6200E+00
     -5.573  0.0000E+00  0.0000E+00  0.6200E+00  0.6200E+00
     -5.464  0.0000E+00  0.0000E+00  0.6200E+00  0.6200E+00
     -5.355  0.0000E+00  0.0000E+00  0.6200E+00  0.6200E+00
     -5.247  0.0000E+00  0.0000E+00  0.6200E+00  0.6200E+00
     -5.138  0.0000E+00  0.0000E+00  0.6200E+00  0.6200E+00
     -5.029  0.0000E+00  0.0000E+00  0.6200E+00  0.6200E+00
     -4.921  0.0000E+00  0.0000E+00  0.6200E+00  0.6200E+00
     -4.812  0.0000E+00  0.0000E+00  0.6200E+00  0.6200E+00
     -4.703  0.0000E+00  0.0000E+00  0.6200E+00  0.6200E+00
     -4.594  0.0000E+00  0.0000E+00  0.6200E+00  0.6200E+00
     -4.486  0.0000E+00  0.0000E+00  0.6200E+00  0.6200E+00
     -4.377  0.0000E+00  0.0000E+00  0.6200E+00  0.6200E+00
     -4.268  0.0000E+00  0.0000E+00  0.6200E+00  0.6200E+00
     -4.159  0.0000E+00  0.0000E+00  0.6200E+00  0.6200E+00
     -4.051  0.0000E+00  0.0000E+00  0.6200E+00  0.6200E+00
     -3.942  0.0000E+00  0.0000E+00  0.6200E+00  0.6200E+00
     -3.833  0.0000E+00  0.0000E+00  0.6200E+00  0.6200E+00
     -3.724  0.0000E+00  0.0000E+00  0.6200E+00  0.6200E+00
     -3.616  0.0000E+00  0.0000E+00  0.6200E+00  0.6200E+00
     -3.507  0.0000E+00  0.0000E+00  0.6200E+00  0.6200E+00
     -3.398  0.0000E+00  0.0000E+00  0.6200E+00  0.6200E+00
     -3.290  0.0000E+00  0.0000E+00  0.6200E+00  0.6200E+00
     -3.181  0.0000E+00  0.0000E+00  0.6200E+00  0.6200E+00
     -3.072  0.0000E+00  0.0000E+00  0.6200E+00  0.6200E+00
     -2.963  0.0000E+00  0.0000E+00  0.6200E+00  0.6200E+00
     -2.855  0.0000E+00  0.0000E+00  0.6200E+00  0.6200E+00
     -2.746  0.0000E+00  0.0000E+00  0.6200E+00  0.6200E+00
     -2.637  0.0000E+00  0.0000E+00  0.6200E+00  0.6200E+00
     -2.528  0.0000E+00  0.0000E+00  0.6200E+00  0.6200E+00
     -2.420  0.0000E+00  0.0000E+00  0.6200E+00  0.6200E+00
     -2.311  0.0000E+00  0.0000E+00  0.6200E+00  0.6200E+00
     -2.202  0.0000E+00  0.0000E+00  0.6200E+00  0.6200E+00
     -2.094  0.0000E+00  0.0000E+00  0.6200E+00  0.6200E+00
     -1.985  0.1481E-13  0.1481E-13  0.6200E+00  0.6200E+00
     -1.876  0.5673E-09  0.5673E-09  0.6200E+00  0.6200E+00
     -1.767  0.2197E-05  0.2197E-05  0.6200E+00  0.6200E+00
     -1.659  0.8987E-03  0.8987E-03  0.6201E+00  0.6201E+00
     -1.550  0.4203E-01  0.4203E-01  0.6247E+00  0.6247E+00
     -1.441  0.2550E+00  0.2550E+00  0.6524E+00  0.6524E+00
     -1.332  0.2397E+00  0.2397E+00  0.6785E+00  0.6785E+00
     -1.224  0.1364E+00  0.1364E+00  0.6933E+00  0.6933E+00
     -1.115  0.1971E+00  0.1971E+00  0.7147E+00  0.7147E+00
     -1.006  0.3162E+00  0.3162E+00  0.7491E+00  0.7491E+00
     -0.898  0.5639E+00  0.5639E+00  0.8104E+00  0.8104E+00
     -0.789  0.6193E+00  0.6193E+00  0.8777E+00  0.8777E+00
     -0.680  0.6018E+00  0.6018E+00  0.9432E+00  0.9432E+00
     -0.571  0.6328E+00  0.6328E+00  0.1012E+01  0.1012E+01
     -0.463  0.5761E+00  0.5761E+00  0.1075E+01  0.1075E+01
     -0.354  0.3657E+00  0.3657E+00  0.1114E+01  0.1114E+01
     -0.245  0.2452E+00  0.2452E+00  0.1141E+01  0.1141E+01
     -0.136  0.2902E+00  0.2902E+00  0.1173E+01  0.1173E+01
     -0.028  0.6608E-01  0.6608E-01  0.1180E+01  0.1180E+01
      0.081  0.1967E-02  0.1967E-02  0.1180E+01  0.1180E+01
      0.190  0.3449E-02  0.3449E-02  0.1180E+01  0.1180E+01
      0.298  0.1240E+00  0.1240E+00  0.1194E+01  0.1194E+01
      0.407  0.6549E+00  0.6549E+00  0.1265E+01  0.1265E+01
      0.516  0.7230E+00  0.7230E+00  0.1344E+01  0.1344E+01
      0.625  0.3175E+00  0.3175E+00  0.1378E+01  0.1378E+01
      0.733  0.1920E+00  0.1920E+00  0.1399E+01  0.1399E+01
      0.842  0.1684E+00  0.1684E+00  0.1417E+01  0.1417E+01
      0.951  0.6507E-01  0.6507E-01  0.1424E+01  0.1424E+01
      1.060  0.3087E+00  0.3087E+00  0.1458E+01  0.1458E+01
      1.168  0.6915E+00  0.6915E+00  0.1533E+01  0.1533E+01
      1.277  0.4665E+00  0.4665E+00  0.1584E+01  0.1584E+01
      1.386  0.2825E+00  0.2825E+00  0.1615E+01  0.1615E+01
      1.495  0.6363E+00  0.6363E+00  0.1684E+01  0.1684E+01
      1.603  0.8567E+00  0.8567E+00  0.1777E+01  0.1777E+01
      1.712  0.6395E+00  0.6395E+00  0.1847E+01  0.1847E+01
      1.821  0.8151E+00  0.8151E+00  0.1935E+01  0.1935E+01
      1.929  0.1026E+01  0.1026E+01  0.2047E+01  0.2047E+01
      2.038  0.8887E+00  0.8887E+00  0.2143E+01  0.2143E+01
      2.147  0.5919E+00  0.5919E+00  0.2208E+01  0.2208E+01
      2.256  0.5314E+00  0.5314E+00  0.2265E+01  0.2265E+01
      2.364  0.8556E+00  0.8556E+00  0.2358E+01  0.2358E+01
      2.473  0.5983E+00  0.5983E+00  0.2424E+01  0.2424E+01
      2.582  0.1705E+00  0.1705E+00  0.2442E+01  0.2442E+01
      2.691  0.1749E+00  0.1749E+00  0.2461E+01  0.2461E+01
      2.799  0.1539E+00  0.1539E+00  0.2478E+01  0.2478E+01
      2.908  0.1956E-01  0.1956E-01  0.2480E+01  0.2480E+01
      3.017  0.3050E-03  0.3050E-03  0.2480E+01  0.2480E+01
      3.125  0.5209E-06  0.5209E-06  0.2480E+01  0.2480E+01
      3.234  0.9129E-10  0.9129E-10  0.2480E+01  0.2480E+01
      3.343  0.1603E-14  0.1603E-14  0.2480E+01  0.2480E+01
      3.452  0.0000E+00  0.0000E+00  0.2480E+01  0.2480E+01
      3.560  0.0000E+00  0.0000E+00  0.2480E+01  0.2480E+01
      3.669  0.0000E+00  0.0000E+00  0.2480E+01  0.2480E+01
      3.778  0.0000E+00  0.0000E+00  0.2480E+01  0.2480E+01
      3.887  0.0000E+00  0.0000E+00  0.2480E+01  0.2480E+01
      3.995  0.0000E+00  0.0000E+00  0.2480E+01  0.2480E+01
      4.104  0.0000E+00  0.0000E+00  0.2480E+01  0.2480E+01
      4.213  0.0000E+00  0.0000E+00  0.2480E+01  0.2480E+01
      4.321  0.0000E+00  0.0000E+00  0.2480E+01  0.2480E+01
      4.430  0.0000E+00  0.0000E+00  0.2480E+01  0.2480E+01
      4.539  0.0000E+00  0.0000E+00  0.2480E+01  0.2480E+01
      4.648  0.0000E+00  0.0000E+00  0.2480E+01  0.2480E+01
      4.756  0.0000E+00  0.0000E+00  0.2480E+01  0.2480E+01
      4.865  0.5221E-13  0.5221E-13  0.2480E+01  0.2480E+01
      4.974  0.1310E-08  0.1310E-08  0.2480E+01  0.2480E+01
      5.083  0.3296E-05  0.3296E-05  0.2480E+01  0.2480E+01
      5.191  0.8665E-03  0.8665E-03  0.2480E+01  0.2480E+01
      5.300  0.2583E-01  0.2583E-01  0.2483E+01  0.2483E+01
      5.409  0.9920E-01  0.9920E-01  0.2494E+01  0.2494E+01
      5.517  0.5403E-01  0.5403E-01  0.2500E+01  0.2500E+01
      5.626  0.3975E-02  0.3975E-02  0.2500E+01  0.2500E+01
      5.735  0.3465E-04  0.3465E-04  0.2500E+01  0.2500E+01
      5.844  0.3237E-07  0.3237E-07  0.2500E+01  0.2500E+01
      5.952  0.3069E-11  0.3069E-11  0.2500E+01  0.2500E+01
      6.061  0.4084E-16  0.4084E-16  0.2500E+01  0.2500E+01
      6.170  0.0000E+00  0.0000E+00  0.2500E+01  0.2500E+01
      6.279  0.0000E+00  0.0000E+00  0.2500E+01  0.2500E+01
      6.387  0.0000E+00  0.0000E+00  0.2500E+01  0.2500E+01
      6.496  0.0000E+00  0.0000E+00  0.2500E+01  0.2500E+01
      6.605  0.0000E+00  0.0000E+00  0.2500E+01  0.2500E+01
      6.713  0.0000E+00  0.0000E+00  0.2500E+01  0.2500E+01
      6.822  0.0000E+00  0.0000E+00  0.2500E+01  0.2500E+01
      6.931  0.0000E+00  0.0000E+00  0.2500E+01  0.2500E+01
      7.040  0.0000E+00  0.0000E+00  0.2500E+01  0.2500E+01
      7.148  0.0000E+00  0.0000E+00  0.2500E+01  0.2500E+01
      7.257  0.0000E+00  0.0000E+00  0.2500E+01  0.2500E+01
      7.366  0.0000E+00  0.0000E+00  0.2500E+01  0.2500E+01
      7.475  0.0000E+00  0.0000E+00  0.2500E+01  0.2500E+01
      7.583  0.0000E+00  0.0000E+00  0.2500E+01  0.2500E+01
      7.692  0.2093E-15  0.2093E-15  0.2500E+01  0.2500E+01
      7.801  0.1532E-10  0.1532E-10  0.2500E+01  0.2500E+01
      7.910  0.1126E-06  0.1126E-06  0.2500E+01  0.2500E+01
      8.018  0.8447E-04  0.8447E-04  0.2500E+01  0.2500E+01
      8.127  0.6875E-02  0.6875E-02  0.2501E+01  0.2501E+01
      8.236  0.6766E-01  0.6766E-01  0.2508E+01  0.2508E+01
      8.344  0.9148E-01  0.9148E-01  0.2518E+01  0.2518E+01
      8.453  0.1742E-01  0.1742E-01  0.2520E+01  0.2520E+01
      8.562  0.4182E-03  0.4182E-03  0.2520E+01  0.2520E+01
      8.671  0.1120E-05  0.1120E-05  0.2520E+01  0.2520E+01
      8.779  0.3188E-09  0.3188E-09  0.2520E+01  0.2520E+01
      8.888  0.7788E-07  0.7788E-07  0.2520E+01  0.2520E+01
      8.997  0.7905E-04  0.7905E-04  0.2520E+01  0.2520E+01
      9.106  0.8622E-02  0.8622E-02  0.2521E+01  0.2521E+01
      9.214  0.1119E+00  0.1119E+00  0.2533E+01  0.2533E+01
      9.323  0.1967E+00  0.1967E+00  0.2554E+01  0.2554E+01
      9.432  0.4906E-01  0.4906E-01  0.2560E+01  0.2560E+01
      9.540  0.1770E-02  0.1770E-02  0.2560E+01  0.2560E+01
      9.649  0.1134E-01  0.1134E-01  0.2561E+01  0.2561E+01
      9.758  0.8083E-01  0.8083E-01  0.2570E+01  0.2570E+01
      9.867  0.8683E-01  0.8683E-01  0.2579E+01  0.2579E+01
      9.975  0.7743E-01  0.7743E-01  0.2588E+01  0.2588E+01
     10.084  0.9441E-01  0.9441E-01  0.2598E+01  0.2598E+01
     10.193  0.7115E-01  0.7115E-01  0.2606E+01  0.2606E+01
     10.302  0.2241E+00  0.2241E+00  0.2630E+01  0.2630E+01
     10.410  0.2061E+00  0.2061E+00  0.2653E+01  0.2653E+01
     10.519  0.6381E-01  0.6381E-01  0.2660E+01  0.2660E+01
     10.628  0.3710E-01  0.3710E-01  0.2664E+01  0.2664E+01
     10.736  0.1802E+00  0.1802E+00  0.2683E+01  0.2683E+01
     10.845  0.1391E+00  0.1391E+00  0.2698E+01  0.2698E+01
     10.954  0.1515E-01  0.1515E-01  0.2700E+01  0.2700E+01
     11.063  0.2141E-01  0.2141E-01  0.2702E+01  0.2702E+01
     11.171  0.1648E+00  0.1648E+00  0.2720E+01  0.2720E+01
     11.280  0.2320E+00  0.2320E+00  0.2745E+01  0.2745E+01
     11.389  0.1167E+00  0.1167E+00  0.2758E+01  0.2758E+01
     11.498  0.5425E-01  0.5425E-01  0.2764E+01  0.2764E+01
     11.606  0.1654E+00  0.1654E+00  0.2782E+01  0.2782E+01
     11.715  0.2477E+00  0.2477E+00  0.2809E+01  0.2809E+01
     11.824  0.1286E+00  0.1286E+00  0.2823E+01  0.2823E+01
     11.932  0.2699E+00  0.2699E+00  0.2852E+01  0.2852E+01
     12.041  0.3707E+00  0.3707E+00  0.2893E+01  0.2893E+01
     12.150  0.2251E+00  0.2251E+00  0.2917E+01  0.2917E+01
     12.259  0.3614E+00  0.3614E+00  0.2956E+01  0.2956E+01
     12.367  0.3244E+00  0.3244E+00  0.2992E+01  0.2992E+01
     12.476  0.1810E+00  0.1810E+00  0.3011E+01  0.3011E+01
     12.585  0.1106E+00  0.1106E+00  0.3023E+01  0.3023E+01
     12.694  0.1928E+00  0.1928E+00  0.3044E+01  0.3044E+01
     12.802  0.1370E+00  0.1370E+00  0.3059E+01  0.3059E+01
     12.911  0.1278E+00  0.1278E+00  0.3073E+01  0.3073E+01
     13.020  0.3765E+00  0.3765E+00  0.3114E+01  0.3114E+01
     13.128  0.3979E+00  0.3979E+00  0.3157E+01  0.3157E+01
     13.237  0.3701E+00  0.3701E+00  0.3198E+01  0.3198E+01
     13.346  0.3296E+00  0.3296E+00  0.3233E+01  0.3233E+01
     13.455  0.2918E+00  0.2918E+00  0.3265E+01  0.3265E+01
     13.563  0.1532E+00  0.1532E+00  0.3282E+01  0.3282E+01
     13.672  0.1093E+00  0.1093E+00  0.3294E+01  0.3294E+01
     13.781  0.5577E-01  0.5577E-01  0.3300E+01  0.3300E+01
     13.890  0.3930E-01  0.3930E-01  0.3304E+01  0.3304E+01
     13.998  0.1368E+00  0.1368E+00  0.3319E+01  0.3319E+01
     14.107  0.3492E+00  0.3492E+00  0.3357E+01  0.3357E+01
     14.216  0.5048E+00  0.5048E+00  0.3412E+01  0.3412E+01
     14.325  0.4003E+00  0.4003E+00  0.3455E+01  0.3455E+01
     14.433  0.5070E+00  0.5070E+00  0.3510E+01  0.3510E+01
     14.542  0.3307E+00  0.3307E+00  0.3546E+01  0.3546E+01
     14.651  0.4705E+00  0.4705E+00  0.3597E+01  0.3597E+01
     14.759  0.5549E+00  0.5549E+00  0.3658E+01  0.3658E+01
     14.868  0.4830E+00  0.4830E+00  0.3710E+01  0.3710E+01
     14.977  0.4565E+00  0.4565E+00  0.3760E+01  0.3760E+01
     15.086  0.2450E+00  0.2450E+00  0.3787E+01  0.3787E+01
     15.194  0.3225E+00  0.3225E+00  0.3822E+01  0.3822E+01
     15.303  0.4370E+00  0.4370E+00  0.3869E+01  0.3869E+01
     15.412  0.2648E+00  0.2648E+00  0.3898E+01  0.3898E+01
     15.521  0.2073E+00  0.2073E+00  0.3921E+01  0.3921E+01
     15.629  0.2889E+00  0.2889E+00  0.3952E+01  0.3952E+01
     15.738  0.7167E-01  0.7167E-01  0.3960E+01  0.3960E+01
     15.847  0.2408E-02  0.2408E-02  0.3960E+01  0.3960E+01
     15.955  0.9540E-05  0.9540E-05  0.3960E+01  0.3960E+01
     16.064  0.4058E-08  0.4058E-08  0.3960E+01  0.3960E+01
     16.173  0.1759E-12  0.1759E-12  0.3960E+01  0.3960E+01
     16.282  0.0000E+00  0.0000E+00  0.3960E+01  0.3960E+01
     16.390  0.0000E+00  0.0000E+00  0.3960E+01  0.3960E+01
     16.499  0.0000E+00  0.0000E+00  0.3960E+01  0.3960E+01
     16.608  0.0000E+00  0.0000E+00  0.3960E+01  0.3960E+01
     16.717  0.0000E+00  0.0000E+00  0.3960E+01  0.3960E+01
     16.825  0.0000E+00  0.0000E+00  0.3960E+01  0.3960E+01
     16.934  0.0000E+00  0.0000E+00  0.3960E+01  0.3960E+01
     17.043  0.0000E+00  0.0000E+00  0.3960E+01  0.3960E+01
     17.04274173    -15.57593980  301      3.23756433      1.00000000
    -15.576  0.0000E+00  0.0000E+00  0.0000E+00  0.0000E+00  0.0000E+00  0.0000E+00
    -15.467  0.0000E+00  0.0000E+00  0.0000E+00  0.0000E+00  0.0000E+00  0.0000E+00
    -15.358  0.0000E+00  0.0000E+00  0.0000E+00  0.0000E+00  0.0000E+00  0.0000E+00
    -15.250  0.0000E+00  0.0000E+00  0.0000E+00  0.0000E+00  0.0000E+00  0.0000E+00
    -15.141  0.0000E+00  0.0000E+00  0.0000E+00  0.0000E+00  0.0000E+00  0.0000E+00
    -15.032  0.0000E+00  0.0000E+00  0.0000E+00  0.0000E+00  0.0000E+00  0.0000E+00
    -14.924  0.0000E+00  0.0000E+00  0.0000E+00  0.0000E+00  0.0000E+00  0.0000E+00
    -14.815  0.0000E+00  0.0000E+00  0.0000E+00  0.0000E+00  0.0000E+00  0.0000E+00
    -14.706  0.0000E+00  0.0000E+00  0.0000E+00  0.0000E+00  0.0000E+00  0.0000E+00
    -14.597  0.8094E-14  0.8094E-14  0.1002E-14  0.1002E-14  0.5518E-16  0.5518E-16
    -14.489  0.1806E-09  0.1806E-09  0.2236E-10  0.2236E-10  0.1231E-11  0.1231E-11
    -14.380  0.4044E-06  0.4044E-06  0.5006E-07  0.5006E-07  0.2757E-08  0.2757E-08
    -14.271  0.9494E-04  0.9494E-04  0.1175E-04  0.1175E-04  0.6473E-06  0.6473E-06
    -14.162  0.2541E-02  0.2541E-02  0.3146E-03  0.3146E-03  0.1733E-04  0.1733E-04
    -14.054  0.8827E-02  0.8827E-02  0.1093E-02  0.1093E-02  0.6030E-04  0.6030E-04
    -13.945  0.4730E-02  0.4730E-02  0.6912E-03  0.6912E-03  0.5007E-04  0.5007E-04
    -13.836  0.6678E-02  0.6678E-02  0.2621E-02  0.2621E-02  0.3476E-03  0.3476E-03
    -13.728  0.1534E-01  0.1534E-01  0.6042E-02  0.6042E-02  0.8314E-03  0.8314E-03
    -13.619  0.9165E-02  0.9165E-02  0.2878E-02  0.2878E-02  0.5007E-03  0.5007E-03
    -13.510  0.4682E-02  0.4682E-02  0.2760E-02  0.2760E-02  0.5525E-03  0.5525E-03
    -13.401  0.7875E-02  0.7875E-02  0.8028E-02  0.8028E-02  0.1664E-02  0.1664E-02
    -13.293  0.7965E-02  0.7965E-02  0.9514E-02  0.9514E-02  0.2777E-02  0.2777E-02
    -13.184  0.5799E-02  0.5799E-02  0.1349E-01  0.1349E-01  0.3723E-02  0.3723E-02
    -13.075  0.2796E-02  0.2796E-02  0.1761E-01  0.1761E-01  0.3605E-02  0.3605E-02
    -12.966  0.2773E-02  0.2773E-02  0.1411E-01  0.1411E-01  0.5160E-02  0.5160E-02
    -12.858  0.3320E-02  0.3320E-02  0.1072E-01  0.1072E-01  0.6902E-02  0.6902E-02
    -12.749  0.2688E-02  0.2688E-02  0.6667E-02  0.6667E-02  0.4708E-02  0.4708E-02
    -12.640  0.1897E-02  0.1897E-02  0.3330E-02  0.3330E-02  0.1695E-02  0.1695E-02
    -12.532  0.6512E-03  0.6512E-03  0.1055E-02  0.1055E-02  0.4726E-03  0.4726E-03
    -12.423  0.3653E-04  0.3653E-04  0.6765E-04  0.6765E-04  0.2896E-04  0.2896E-04
    -12.314  0.2444E-06  0.2444E-06  0.5400E-06  0.5400E-06  0.2208E-06  0.2208E-06
    -12.205  0.1750E-09  0.1750E-09  0.4687E-09  0.4687E-09  0.1833E-09  0.1833E-09
    -12.097  0.1275E-13  0.1275E-13  0.4181E-13  0.4181E-13  0.1569E-13  0.1569E-13
    -11.988  0.6676E-20  0.6676E-20  0.3446E-18  0.3446E-18  0.1053E-18  0.1053E-18
    -11.879  0.0000E+00  0.0000E+00  0.0000E+00  0.0000E+00  0.0000E+00  0.0000E+00
    -11.770  0.0000E+00  0.0000E+00  0.0000E+00  0.0000E+00  0.0000E+00  0.0000E+00
    -11.662  0.0000E+00  0.0000E+00  0.0000E+00  0.0000E+00  0.0000E+00  0.0000E+00
    -11.553  0.0000E+00  0.0000E+00  0.0000E+00  0.0000E+00  0.0000E+00  0.0000E+00
    -11.444  0.0000E+00  0.0000E+00  0.0000E+00  0.0000E+00  0.0000E+00  0.0000E+00
    -11.336  0.0000E+00  0.0000E+00  0.0000E+00  0.0000E+00  0.0000E+00  0.0000E+00
    -11.227  0.0000E+00  0.0000E+00  0.0000E+00  0.0000E+00  0.0000E+00  0.0000E+00
    -11.118  0.0000E+00  0.0000E+00  0.0000E+00  0.0000E+00  0.0000E+00  0.0000E+00
    -11.009  0.0000E+00  0.0000E+00  0.0000E+00  0.0000E+00  0.0000E+00  0.0000E+00
    -10.901  0.0000E+00  0.0000E+00  0.0000E+00  0.0000E+00  0.0000E+00  0.0000E+00
    -10.792  0.0000E+00  0.0000E+00  0.0000E+00  0.0000E+00  0.0000E+00  0.0000E+00
    -10.683  0.0000E+00  0.0000E+00  0.0000E+00  0.0000E+00  0.0000E+00  0.0000E+00
    -10.574  0.0000E+00  0.0000E+00  0.0000E+00  0.0000E+00  0.0000E+00  0.0000E+00
    -10.466  0.0000E+00  0.0000E+00  0.0000E+00  0.0000E+00  0.0000E+00  0.0000E+00
    -10.357  0.0000E+00  0.0000E+00  0.0000E+00  0.0000E+00  0.0000E+00  0.0000E+00
    -10.248  0.0000E+00  0.0000E+00  0.0000E+00  0.0000E+00  0.0000E+00  0.0000E+00
    -10.139  0.0000E+00  0.0000E+00  0.0000E+00  0.0000E+00  0.0000E+00  0.0000E+00
    -10.031  0.0000E+00  0.0000E+00  0.0000E+00  0.0000E+00  0.0000E+00  0.0000E+00
     -9.922  0.0000E+00  0.0000E+00  0.0000E+00  0.0000E+00  0.0000E+00  0.0000E+00
     -9.813  0.0000E+00  0.0000E+00  0.0000E+00  0.0000E+00  0.0000E+00  0.0000E+00
     -9.705  0.0000E+00  0.0000E+00  0.0000E+00  0.0000E+00  0.0000E+00  0.0000E+00
     -9.596  0.0000E+00  0.0000E+00  0.0000E+00  0.0000E+00  0.0000E+00  0.0000E+00
     -9.487  0.0000E+00  0.0000E+00  0.0000E+00  0.0000E+00  0.0000E+00  0.0000E+00
     -9.378  0.0000E+00  0.0000E+00  0.0000E+00  0.0000E+00  0.0000E+00  0.0000E+00
     -9.270  0.0000E+00  0.0000E+00  0.0000E+00  0.0000E+00  0.0000E+00  0.0000E+00
     -9.161  0.0000E+00  0.0000E+00  0.0000E+00  0.0000E+00  0.0000E+00  0.0000E+00
     -9.052  0.0000E+00  0.0000E+00  0.0000E+00  0.0000E+00  0.0000E+00  0.0000E+00
     -8.943  0.0000E+00  0.0000E+00  0.0000E+00  0.0000E+00  0.0000E+00  0.0000E+00
     -8.835  0.0000E+00  0.0000E+00  0.0000E+00  0.0000E+00  0.0000E+00  0.0000E+00
     -8.726  0.0000E+00  0.0000E+00  0.0000E+00  0.0000E+00  0.0000E+00  0.0000E+00
     -8.617  0.0000E+00  0.0000E+00  0.0000E+00  0.0000E+00  0.0000E+00  0.0000E+00
     -8.509  0.0000E+00  0.0000E+00  0.0000E+00  0.0000E+00  0.0000E+00  0.0000E+00
     -8.400  0.0000E+00  0.0000E+00  0.0000E+00  0.0000E+00  0.0000E+00  0.0000E+00
     -8.291  0.0000E+00  0.0000E+00  0.0000E+00  0.0000E+00  0.0000E+00  0.0000E+00
     -8.182  0.0000E+00  0.0000E+00  0.0000E+00  0.0000E+00  0.0000E+00  0.0000E+00
     -8.074  0.0000E+00  0.0000E+00  0.0000E+00  0.0000E+00  0.0000E+00  0.0000E+00
     -7.965  0.0000E+00  0.0000E+00  0.0000E+00  0.0000E+00  0.0000E+00  0.0000E+00
     -7.856  0.0000E+00  0.0000E+00  0.0000E+00  0.0000E+00  0.0000E+00  0.0000E+00
     -7.747  0.0000E+00  0.0000E+00  0.0000E+00  0.0000E+00  0.0000E+00  0.0000E+00
     -7.639  0.0000E+00  0.0000E+00  0.0000E+00  0.0000E+00  0.0000E+00  0.0000E+00
     -7.530  0.0000E+00  0.0000E+00  0.0000E+00  0.0000E+00  0.0000E+00  0.0000E+00
     -7.421  0.0000E+00  0.0000E+00  0.0000E+00  0.0000E+00  0.0000E+00  0.0000E+00
     -7.313  0.0000E+00  0.0000E+00  0.0000E+00  0.0000E+00  0.0000E+00  0.0000E+00
     -7.204  0.0000E+00  0.0000E+00  0.0000E+00  0.0000E+00  0.0000E+00  0.0000E+00
     -7.095  0.0000E+00  0.0000E+00  0.0000E+00  0.0000E+00  0.0000E+00  0.0000E+00
     -6.986  0.0000E+00  0.0000E+00  0.0000E+00  0.0000E+00  0.0000E+00  0.0000E+00
     -6.878  0.0000E+00  0.0000E+00  0.0000E+00  0.0000E+00  0.0000E+00  0.0000E+00
     -6.769  0.0000E+00  0.0000E+00  0.0000E+00  0.0000E+00  0.0000E+00  0.0000E+00
     -6.660  0.0000E+00  0.0000E+00  0.0000E+00  0.0000E+00  0.0000E+00  0.0000E+00
     -6.551  0.0000E+00  0.0000E+00  0.0000E+00  0.0000E+00  0.0000E+00  0.0000E+00
     -6.443  0.0000E+00  0.0000E+00  0.0000E+00  0.0000E+00  0.0000E+00  0.0000E+00
     -6.334  0.0000E+00  0.0000E+00  0.0000E+00  0.0000E+00  0.0000E+00  0.0000E+00
     -6.225  0.0000E+00  0.0000E+00  0.0000E+00  0.0000E+00  0.0000E+00  0.0000E+00
     -6.117  0.0000E+00  0.0000E+00  0.0000E+00  0.0000E+00  0.0000E+00  0.0000E+00
     -6.008  0.0000E+00  0.0000E+00  0.0000E+00  0.0000E+00  0.0000E+00  0.0000E+00
     -5.899  0.0000E+00  0.0000E+00  0.0000E+00  0.0000E+00  0.0000E+00  0.0000E+00
     -5.790  0.0000E+00  0.0000E+00  0.0000E+00  0.0000E+00  0.0000E+00  0.0000E+00
     -5.682  0.0000E+00  0.0000E+00  0.0000E+00  0.0000E+00  0.0000E+00  0.0000E+00
     -5.573  0.0000E+00  0.0000E+00  0.0000E+00  0.0000E+00  0.0000E+00  0.0000E+00
     -5.464  0.0000E+00  0.0000E+00  0.0000E+00  0.0000E+00  0.0000E+00  0.0000E+00
     -5.355  0.0000E+00  0.0000E+00  0.0000E+00  0.0000E+00  0.0000E+00  0.0000E+00
     -5.247  0.0000E+00  0.0000E+00  0.0000E+00  0.0000E+00  0.0000E+00  0.0000E+00
     -5.138  0.0000E+00  0.0000E+00  0.0000E+00  0.0000E+00  0.0000E+00  0.0000E+00
     -5.029  0.0000E+00  0.0000E+00  0.0000E+00  0.0000E+00  0.0000E+00  0.0000E+00
     -4.921  0.0000E+00  0.0000E+00  0.0000E+00  0.0000E+00  0.0000E+00  0.0000E+00
     -4.812  0.0000E+00  0.0000E+00  0.0000E+00  0.0000E+00  0.0000E+00  0.0000E+00
     -4.703  0.0000E+00  0.0000E+00  0.0000E+00  0.0000E+00  0.0000E+00  0.0000E+00
     -4.594  0.0000E+00  0.0000E+00  0.0000E+00  0.0000E+00  0.0000E+00  0.0000E+00
     -4.486  0.0000E+00  0.0000E+00  0.0000E+00  0.0000E+00  0.0000E+00  0.0000E+00
     -4.377  0.0000E+00  0.0000E+00  0.0000E+00  0.0000E+00  0.0000E+00  0.0000E+00
     -4.268  0.0000E+00  0.0000E+00  0.0000E+00  0.0000E+00  0.0000E+00  0.0000E+00
     -4.159  0.0000E+00  0.0000E+00  0.0000E+00  0.0000E+00  0.0000E+00  0.0000E+00
     -4.051  0.0000E+00  0.0000E+00  0.0000E+00  0.0000E+00  0.0000E+00  0.0000E+00
     -3.942  0.0000E+00  0.0000E+00  0.0000E+00  0.0000E+00  0.0000E+00  0.0000E+00
     -3.833  0.0000E+00  0.0000E+00  0.0000E+00  0.0000E+00  0.0000E+00  0.0000E+00
     -3.724  0.0000E+00  0.0000E+00  0.0000E+00  0.0000E+00  0.0000E+00  0.0000E+00
     -3.616  0.0000E+00  0.0000E+00  0.0000E+00  0.0000E+00  0.0000E+00  0.0000E+00
     -3.507  0.0000E+00  0.0000E+00  0.0000E+00  0.0000E+00  0.0000E+00  0.0000E+00
     -3.398  0.0000E+00  0.0000E+00  0.0000E+00  0.0000E+00  0.0000E+00  0.0000E+00
     -3.290  0.0000E+00  0.0000E+00  0.0000E+00  0.0000E+00  0.0000E+00  0.0000E+00
     -3.181  0.0000E+00  0.0000E+00  0.0000E+00  0.0000E+00  0.0000E+00  0.0000E+00
     -3.072  0.0000E+00  0.0000E+00  0.0000E+00  0.0000E+00  0.0000E+00  0.0000E+00
     -2.963  0.0000E+00  0.0000E+00  0.0000E+00  0.0000E+00  0.0000E+00  0.0000E+00
     -2.855  0.0000E+00  0.0000E+00  0.0000E+00  0.0000E+00  0.0000E+00  0.0000E+00
     -2.746  0.0000E+00  0.0000E+00  0.0000E+00  0.0000E+00  0.0000E+00  0.0000E+00
     -2.637  0.0000E+00  0.0000E+00  0.0000E+00  0.0000E+00  0.0000E+00  0.0000E+00
     -2.528  0.0000E+00  0.0000E+00  0.0000E+00  0.0000E+00  0.0000E+00  0.0000E+00
     -2.420  0.0000E+00  0.0000E+00  0.0000E+00  0.0000E+00  0.0000E+00  0.0000E+00
     -2.311  0.0000E+00  0.0000E+00  0.0000E+00  0.0000E+00  0.0000E+00  0.0000E+00
     -2.202  0.0000E+00  0.0000E+00  0.0000E+00  0.0000E+00  0.0000E+00  0.0000E+00
     -2.094  0.0000E+00  0.0000E+00  0.0000E+00  0.0000E+00  0.0000E+00  0.0000E+00
     -1.985  0.3427E-14  0.3427E-14  0.6945E-15  0.6945E-15  0.1924E-15  0.1924E-15
     -1.876  0.1295E-09  0.1295E-09  0.2620E-10  0.2620E-10  0.7456E-11  0.7456E-11
     -1.767  0.4913E-06  0.4913E-06  0.9910E-07  0.9910E-07  0.2938E-07  0.2938E-07
     -1.659  0.1952E-03  0.1952E-03  0.3913E-04  0.3913E-04  0.1232E-04  0.1232E-04
     -1.550  0.8776E-02  0.8776E-02  0.1741E-02  0.1741E-02  0.5948E-03  0.5948E-03
     -1.441  0.5064E-01  0.5064E-01  0.9896E-02  0.9896E-02  0.3747E-02  0.3747E-02
     -1.332  0.4469E-01  0.4469E-01  0.8534E-02  0.8534E-02  0.3684E-02  0.3684E-02
     -1.224  0.2383E-01  0.2383E-01  0.6045E-02  0.6045E-02  0.2108E-02  0.2108E-02
     -1.115  0.3360E-01  0.3360E-01  0.1726E-01  0.1726E-01  0.2538E-02  0.2538E-02
     -1.006  0.4876E-01  0.4876E-01  0.3318E-01  0.3318E-01  0.3870E-02  0.3870E-02
     -0.898  0.5998E-01  0.5998E-01  0.4605E-01  0.4605E-01  0.8684E-02  0.8684E-02
     -0.789  0.4240E-01  0.4240E-01  0.2916E-01  0.2916E-01  0.1090E-01  0.1090E-01
     -0.680  0.3045E-01  0.3045E-01  0.1913E-01  0.1913E-01  0.9315E-02  0.9315E-02