   63   63   50    2
  0.9726449E+01  0.8493727E-09  0.8493727E-09  0.8493727E-09  0.5000000E-15
  1.000000000000000E-004
  CAR 
 unknown system                          
    248      4    198
 
  0.2500000E+00  0.2500000E+00  0.2500000E+00  0.2500000E+00
    1      -14.093272    -14.093272   1.000000   1.000000
    2      -13.791202    -13.791202   1.000000   1.000000
    3      -13.789380    -13.789380   1.000000   1.000000
    4      -13.649115    -13.649115   1.000000   1.000000
    5      -13.446701    -13.446701   1.000000   1.000000
    6      -13.445595    -13.445595   1.000000   1.000000
    7      -13.424420    -13.424420   1.000000   1.000000
    8      -13.275879    -13.275879   1.000000   1.000000
    9      -13.274467    -13.274467   1.000000   1.000000
   10      -13.222526    -13.222526   1.000000   1.000000
   11      -13.152099    -13.152099   1.000000   1.000000
   12      -13.104796    -13.104796   1.000000   1.000000
   13      -13.102365    -13.102365   1.000000   1.000000
   14      -13.093941    -13.093941   1.000000   1.000000
   15      -12.986004    -12.986004   1.000000   1.000000
   16      -12.968971    -12.968971   1.000000   1.000000
   17      -12.967296    -12.967296   1.000000   1.000000
   18      -12.929103    -12.929103   1.000000   1.000000
   19      -12.928858    -12.928858   1.000000   1.000000
   20      -12.909875    -12.909874   1.000000   1.000000
   21      -12.859770    -12.859770   1.000000   1.000000
   22      -12.857927    -12.857927   1.000000   1.000000
   23      -12.817709    -12.817709   1.000000   1.000000
   24      -12.808082    -12.808082   1.000000   1.000000
   25      -12.807717    -12.807717   1.000000   1.000000
   26      -12.689479    -12.689479   1.000000   1.000000
   27      -12.689187    -12.689187   1.000000   1.000000
   28      -12.682103    -12.682103   1.000000   1.000000
   29      -12.681673    -12.681673   1.000000   1.000000
   30      -12.673754    -12.673754   1.000000   1.000000
   31      -12.673077    -12.673077   1.000000   1.000000
   32       -1.456714     -1.456714   1.000000   1.000000
   33       -1.456266     -1.456266   1.000000   1.000000
   34       -1.431844     -1.431844   1.000000   1.000000
   35       -1.232724     -1.232724   1.000000   1.000000
   36       -1.138566     -1.138566   1.000000   1.000000
   37       -1.011620     -1.011620   1.000000   1.000000
   38       -1.010296     -1.010296   1.000000   1.000000
   39       -0.931958     -0.931958   1.000000   1.000000
   40       -0.930414     -0.930414   1.000000   1.000000
   41       -0.918796     -0.918796   1.000000   1.000000
   42       -0.873862     -0.873862   1.000000   1.000000
   43       -0.812063     -0.812063   1.000000   1.000000
   44       -0.811987     -0.811987   1.000000   1.000000
   45       -0.753939     -0.753939   1.000000   1.000000
   46       -0.738842     -0.738842   1.000000   1.000000
   47       -0.738019     -0.738019   1.000000   1.000000
   48       -0.639361     -0.639361   1.000000   1.000000
   49       -0.615820     -0.615820   1.000000   1.000000
   50       -0.614673     -0.614673   1.000000   1.000000
   51       -0.586087     -0.586087   1.000000   1.000000
   52       -0.539493     -0.539493   1.000000   1.000000
   53       -0.538938     -0.538938   1.000000   1.000000
   54       -0.441678     -0.441678   1.000000   1.000000
   55       -0.436663     -0.436663   1.000000   1.000000
   56       -0.435043     -0.435043   1.000000   1.000000
   57       -0.222846     -0.222846   1.000000   1.000000
   58       -0.221937     -0.221937   1.000000   1.000000
   59       -0.211893     -0.211893   1.000000   1.000000
   60        0.366684      0.366684   1.000000   1.000000
   61        0.376714      0.376714   1.000000   1.000000
   62        0.377420      0.377420   1.000000   1.000000
   63        0.399092      0.399092   1.000000   1.000000
   64        0.399330      0.399330   1.000000   1.000000
   65        0.413846      0.413846   1.000000   1.000000
   66        0.414899      0.414899   1.000000   1.000000
   67        0.496326      0.496326   1.000000   1.000000
   68        0.525571      0.525571   1.000000   1.000000
   69        0.526044      0.526044   1.000000   1.000000
   70        0.736679      0.736679   1.000000   1.000000
   71        0.737563      0.737563   1.000000   1.000000
   72        1.017438      1.017438   1.000000   1.000000
   73        1.107341      1.107341   1.000000   1.000000
   74        1.107775      1.107775   1.000000   1.000000
   75        1.119428      1.119428   1.000000   1.000000
   76        1.119723      1.119723   1.000000   1.000000
   77        1.125162      1.125162   1.000000   1.000000
   78        1.150264      1.150264   1.000000   1.000000
   79        1.253657      1.253657   1.000000   1.000000
   80        1.254402      1.254402   1.000000   1.000000
   81        1.431714      1.431714   1.000000   1.000000
   82        1.432499      1.432499   1.000000   1.000000
   83        1.475490      1.475490   1.000000   1.000000
   84        1.479084      1.479084   1.000000   1.000000
   85        1.515152      1.515152   1.000000   1.000000
   86        1.516035      1.516035   1.000000   1.000000
   87        1.561331      1.561331   1.000000   1.000000
   88        1.562009      1.562009   1.000000   1.000000
   89        1.573202      1.573202   1.000000   1.000000
   90        1.575402      1.575402   1.000000   1.000000
   91        1.669714      1.669714   1.000000   1.000000
   92        1.670126      1.670126   1.000000   1.000000
   93        1.749027      1.749027   1.000000   1.000000
   94        1.749242      1.749242   1.000000   1.000000
   95        1.785908      1.785908   1.000000   1.000000
   96        1.816376      1.816376   1.000000   1.000000
   97        1.824352      1.824352   1.000000   1.000000
   98        1.824877      1.824877   1.000000   1.000000
   99        1.869917      1.869917   1.000000   1.000000
  100        1.870256      1.870256   1.000000   1.000000
  101        1.876806      1.876806   1.000000   1.000000
  102        1.907630      1.907630   1.000000   1.000000
  103        1.929874      1.929874   1.000000   1.000000
  104        1.957100      1.957100   1.000000   1.000000
  105        1.957860      1.957860   1.000000   1.000000
  106        2.003813      2.003813   1.000000   1.000000
  107        2.021129      2.021129   1.000000   1.000000
  108        2.022006      2.022006   1.000000   1.000000
  109        2.077993      2.077993   1.000000   1.000000
  110        2.078340      2.078340   1.000000   1.000000
  111        2.127498      2.127498   1.000000   1.000000
  112        2.246716      2.246716   1.000000   1.000000
  113        2.247461      2.247461   1.000000   1.000000
  114        2.296322      2.296322   1.000000   1.000000
  115        2.298089      2.298089   1.000000   1.000000
  116        2.298250      2.298250   1.000000   1.000000
  117        2.330641      2.330641   1.000000   1.000000
  118        2.331320      2.331320   1.000000   1.000000
  119        2.353586      2.353586   1.000000   1.000000
  120        2.420228      2.420228   1.000000   1.000000
  121        2.423660      2.423660   1.000000   1.000000
  122        2.424040      2.424040   1.000000   1.000000
  123        2.685220      2.685220   1.000000   1.000000
  124        2.685700      2.685700   1.000000   1.000000
  125        5.374776      5.374776   0.000000   0.000000
  126        8.252376      8.252376   0.000000   0.000000
  127        9.245233      9.245233   0.000000   0.000000
  128        9.248025      9.248025   0.000000   0.000000
  129        9.755117      9.755117   0.000000   0.000000
  130        9.993576      9.993576   0.000000   0.000000
  131       10.265378     10.265378   0.000000   0.000000
  132       10.269932     10.269932   0.000000   0.000000
  133       10.377667     10.377667   0.000000   0.000000
  134       10.721962     10.721962   0.000000   0.000000
  135       10.723717     10.723717   0.000000   0.000000
  136       11.172776     11.172776   0.000000   0.000000
  137       11.173735     11.173735   0.000000   0.000000
  138       11.296774     11.296774   0.000000   0.000000
  139       11.558120     11.558120   0.000000   0.000000
  140       11.670870     11.670870   0.000000   0.000000
  141       11.672897     11.672897   0.000000   0.000000
  142       11.911723     11.911723   0.000000   0.000000
  143       11.961375     11.961375   0.000000   0.000000
  144       11.963425     11.963425   0.000000   0.000000
  145       11.963817     11.963817   0.000000   0.000000
  146       12.169566     12.169566   0.000000   0.000000
  147       12.173164     12.173164   0.000000   0.000000
  148       12.265794     12.265794   0.000000   0.000000
  149       12.267260     12.267260   0.000000   0.000000
  150       12.340488     12.340488   0.000000   0.000000
  151       12.458405     12.458405   0.000000   0.000000
  152       12.672905     12.672905   0.000000   0.000000
  153       12.675834     12.675834   0.000000   0.000000
  154       12.958356     12.958356   0.000000   0.000000
  155       12.959734     12.959734   0.000000   0.000000
  156       12.990655     12.990655   0.000000   0.000000
  157       13.053600     13.053600   0.000000   0.000000
  158       13.131896     13.131896   0.000000   0.000000
  159       13.134714     13.134714   0.000000   0.000000
  160       13.242871     13.242871   0.000000   0.000000
  161       13.243517     13.243517   0.000000   0.000000
  162       13.333113     13.333113   0.000000   0.000000
  163       13.426524     13.426524   0.000000   0.000000
  164       13.428080     13.428080   0.000000   0.000000
  165       13.638967     13.638967   0.000000   0.000000
  166       13.949427     13.949427   0.000000   0.000000
  167       14.108641     14.108641   0.000000   0.000000
  168       14.109956     14.109956   0.000000   0.000000
  169       14.110477     14.110477   0.000000   0.000000
  170       14.167262     14.167262   0.000000   0.000000
  171       14.168162     14.168162   0.000000   0.000000
  172       14.266923     14.266923   0.000000   0.000000
  173       14.360819     14.360819   0.000000   0.000000
  174       14.364307     14.364307   0.000000   0.000000
  175       14.365051     14.365051   0.000000   0.000000
  176       14.433455     14.433455   0.000000   0.000000
  177       14.434349     14.434349   0.000000   0.000000
  178       14.616825     14.616825   0.000000   0.000000
  179       14.618148     14.618148   0.000000   0.000000
  180       14.623993     14.623993   0.000000   0.000000
  181       14.687545     14.687545   0.000000   0.000000
  182       14.691944     14.691944   0.000000   0.000000
  183       14.693108     14.693108   0.000000   0.000000
  184       14.823233     14.823233   0.000000   0.000000
  185       14.825334     14.825334   0.000000   0.000000
  186       14.866008     14.866008   0.000000   0.000000
  187       14.893469     14.893469   0.000000   0.000000
  188       14.958770     14.958770   0.000000   0.000000
  189       14.960717     14.960717   0.000000   0.000000
  190       15.127213     15.127213   0.000000   0.000000
  191       15.192699     15.192699   0.000000   0.000000
  192       15.194963     15.194963   0.000000   0.000000
  193       15.266152     15.266152   0.000000   0.000000
  194       15.311305     15.311305   0.000000   0.000000
  195       15.314241     15.314241   0.000000   0.000000
  196       15.529612     15.529612   0.000000   0.000000
  197       15.559044     15.559044   0.000000   0.000000
  198       15.559506     15.559506   0.000000   0.000000
 
 -0.2500000E+00  0.2500000E+00  0.2500000E+00  0.2500000E+00
    1      -14.093192    -14.093192   1.000000   1.000000
    2      -13.791716    -13.791716   1.000000   1.000000
    3      -13.789735    -13.789735   1.000000   1.000000
    4      -13.647783    -13.647783   1.000000   1.000000
    5      -13.446502    -13.446502   1.000000   1.000000
    6      -13.446295    -13.446295   1.000000   1.000000
    7      -13.423866    -13.423866   1.000000   1.000000
    8      -13.277269    -13.277269   1.000000   1.000000
    9      -13.275357    -13.275357   1.000000   1.000000
   10      -13.222017    -13.222017   1.000000   1.000000
   11      -13.151738    -13.151738   1.000000   1.000000
   12      -13.103395    -13.103395   1.000000   1.000000
   13      -13.102421    -13.102421   1.000000   1.000000
   14      -13.093212    -13.093212   1.000000   1.000000
   15      -12.988424    -12.988424   1.000000   1.000000
   16      -12.967472    -12.967472   1.000000   1.000000
   17      -12.966365    -12.966365   1.000000   1.000000
   18      -12.930545    -12.930545   1.000000   1.000000
   19      -12.930148    -12.930148   1.000000   1.000000
   20      -12.909318    -12.909318   1.000000   1.000000
   21      -12.859191    -12.859191   1.000000   1.000000
   22      -12.857859    -12.857859   1.000000   1.000000
   23      -12.817754    -12.817754   1.000000   1.000000
   24      -12.807909    -12.807909   1.000000   1.000000
   25      -12.807431    -12.807431   1.000000   1.000000
   26      -12.689195    -12.689195   1.000000   1.000000
   27      -12.688693    -12.688693   1.000000   1.000000
   28      -12.683503    -12.683503   1.000000   1.000000
   29      -12.681584    -12.681584   1.000000   1.000000
   30      -12.673541    -12.673541   1.000000   1.000000
   31      -12.672911    -12.672911   1.000000   1.000000
   32       -1.456324     -1.456324   1.000000   1.000000
   33       -1.456082     -1.456082   1.000000   1.000000
   34       -1.432084     -1.432084   1.000000   1.000000
   35       -1.232463     -1.232463   1.000000   1.000000
   36       -1.138598     -1.138598   1.000000   1.000000
   37       -1.011324     -1.011324   1.000000   1.000000
   38       -1.010217     -1.010217   1.000000   1.000000
   39       -0.931864     -0.931864   1.000000   1.000000
   40       -0.930559     -0.930559   1.000000   1.000000
   41       -0.919520     -0.919520   1.000000   1.000000
   42       -0.874089     -0.874089   1.000000   1.000000
   43       -0.812843     -0.812843   1.000000   1.000000
   44       -0.812677     -0.812677   1.000000   1.000000
   45       -0.752999     -0.752999   1.000000   1.000000
   46       -0.738839     -0.738839   1.000000   1.000000
   47       -0.737646     -0.737646   1.000000   1.000000
   48       -0.639839     -0.639839   1.000000   1.000000
   49       -0.615703     -0.615703   1.000000   1.000000
   50       -0.615256     -0.615256   1.000000   1.000000
   51       -0.586152     -0.586152   1.000000   1.000000
   52       -0.540228     -0.540228   1.000000   1.000000
   53       -0.539565     -0.539565   1.000000   1.000000
   54       -0.440554     -0.440554   1.000000   1.000000
   55       -0.436151     -0.436151   1.000000   1.000000
   56       -0.435284     -0.435284   1.000000   1.000000
   57       -0.222629     -0.222629   1.000000   1.000000
   58       -0.222222     -0.222222   1.000000   1.000000
   59       -0.210299     -0.210299   1.000000   1.000000
   60        0.367141      0.367141   1.000000   1.000000
   61        0.376650      0.376650   1.000000   1.000000
   62        0.377194      0.377194   1.000000   1.000000
   63        0.398926      0.398926   1.000000   1.000000
   64        0.399265      0.399265   1.000000   1.000000
   65        0.413978      0.413978   1.000000   1.000000
   66        0.415029      0.415029   1.000000   1.000000
   67        0.496345      0.496345   1.000000   1.000000
   68        0.525659      0.525659   1.000000   1.000000
   69        0.525844      0.525844   1.000000   1.000000
   70        0.736954      0.736954   1.000000   1.000000
   71        0.737585      0.737585   1.000000   1.000000
   72        1.017972      1.017972   1.000000   1.000000
   73        1.107314      1.107314   1.000000   1.000000
   74        1.107702      1.107702   1.000000   1.000000
   75        1.119142      1.119142   1.000000   1.000000
   76        1.119590      1.119590   1.000000   1.000000
   77        1.124935      1.124935   1.000000   1.000000
   78        1.150419      1.150419   1.000000   1.000000
   79        1.253155      1.253155   1.000000   1.000000
   80        1.254043      1.254043   1.000000   1.000000
   81        1.431411      1.431411   1.000000   1.000000
   82        1.432509      1.432509   1.000000   1.000000
   83        1.475611      1.475611   1.000000   1.000000
   84        1.478896      1.478896   1.000000   1.000000
   85        1.516063      1.516063   1.000000   1.000000
   86        1.517028      1.517028   1.000000   1.000000
   87        1.561180      1.561180   1.000000   1.000000
   88        1.561633      1.561633   1.000000   1.000000
   89        1.573012      1.573012   1.000000   1.000000
   90        1.575413      1.575413   1.000000   1.000000
   91        1.669290      1.669290   1.000000   1.000000
   92        1.669799      1.669799   1.000000   1.000000
   93        1.749184      1.749184   1.000000   1.000000
   94        1.749599      1.749599   1.000000   1.000000
   95        1.785552      1.785552   1.000000   1.000000
   96        1.816120      1.816120   1.000000   1.000000
   97        1.824457      1.824457   1.000000   1.000000
   98        1.824630      1.824630   1.000000   1.000000
   99        1.870656      1.870656   1.000000   1.000000
  100        1.871085      1.871085   1.000000   1.000000
  101        1.875131      1.875131   1.000000   1.000000
  102        1.908282      1.908282   1.000000   1.000000
  103        1.929224      1.929224   1.000000   1.000000
  104        1.956619      1.956619   1.000000   1.000000
  105        1.957375      1.957375   1.000000   1.000000
  106        2.002665      2.002665   1.000000   1.000000
  107        2.021671      2.021671   1.000000   1.000000
  108        2.022684      2.022684   1.000000   1.000000
  109        2.078561      2.078561   1.000000   1.000000
  110        2.079142      2.079142   1.000000   1.000000
  111        2.127362      2.127362   1.000000   1.000000
  112        2.246663      2.246663   1.000000   1.000000
  113        2.247415      2.247415   1.000000   1.000000
  114        2.296244      2.296244   1.000000   1.000000
  115        2.298671      2.298671   1.000000   1.000000
  116        2.298804      2.298804   1.000000   1.000000
  117        2.330372      2.330372   1.000000   1.000000
  118        2.330592      2.330592   1.000000   1.000000
  119        2.352635      2.352635   1.000000   1.000000
  120        2.419787      2.419787   1.000000   1.000000
  121        2.424208      2.424208   1.000000   1.000000
  122        2.424506      2.424506   1.000000   1.000000
  123        2.685291      2.685291   1.000000   1.000000
  124        2.686135      2.686135   1.000000   1.000000
  125        5.374791      5.374791   0.000000   0.000000
  126        8.252757      8.252757   0.000000   0.000000
  127        9.243662      9.243662   0.000000   0.000000
  128        9.246430      9.246430   0.000000   0.000000
  129        9.760092      9.760092   0.000000   0.000000
  130        9.994235      9.994235   0.000000   0.000000
  131       10.265599     10.265599   0.000000   0.000000
  132       10.267963     10.267963   0.000000   0.000000
  133       10.377936     10.377936   0.000000   0.000000
  134       10.719411     10.719411   0.000000   0.000000
  135       10.722758     10.722758   0.000000   0.000000
  136       11.173368     11.173368   0.000000   0.000000
  137       11.174276     11.174276   0.000000   0.000000
  138       11.296937     11.296937   0.000000   0.000000
  139       11.559845     11.559845   0.000000   0.000000
  140       11.670808     11.670808   0.000000   0.000000
  141       11.672223     11.672223   0.000000   0.000000
  142       11.911449     11.911449   0.000000   0.000000
  143       11.961713     11.961713   0.000000   0.000000
  144       11.963456     11.963456   0.000000   0.000000
  145       11.964123     11.964123   0.000000   0.000000
  146       12.169478     12.169478   0.000000   0.000000
  147       12.172202     12.172202   0.000000   0.000000
  148       12.266009     12.266009   0.000000   0.000000
  149       12.267512     12.267512   0.000000   0.000000
  150       12.341201     12.341201   0.000000   0.000000
  151       12.460422     12.460422   0.000000   0.000000
  152       12.672434     12.672434   0.000000   0.000000
  153       12.675178     12.675178   0.000000   0.000000
  154       12.956951     12.956951   0.000000   0.000000
  155       12.958931     12.958931   0.000000   0.000000
  156       12.990001     12.990001   0.000000   0.000000
  157       13.052835     13.052835   0.000000   0.000000
  158       13.132287     13.132287   0.000000   0.000000
  159       13.134831     13.134831   0.000000   0.000000
  160       13.242954     13.242954   0.000000   0.000000
  161       13.243943     13.243943   0.000000   0.000000
  162       13.332781     13.332781   0.000000   0.000000
  163       13.427125     13.427125   0.000000   0.000000
  164       13.428886     13.428886   0.000000   0.000000
  165       13.637502     13.637502   0.000000   0.000000
  166       13.950170     13.950170   0.000000   0.000000
  167       14.107928     14.107928   0.000000   0.000000
  168       14.109977     14.109977   0.000000   0.000000
  169       14.110966     14.110966   0.000000   0.000000
  170       14.168256     14.168256   0.000000   0.000000
  171       14.169807     14.169807   0.000000   0.000000
  172       14.269101     14.269101   0.000000   0.000000
  173       14.358980     14.358980   0.000000   0.000000
  174       14.363057     14.363057   0.000000   0.000000
  175       14.363984     14.363984   0.000000   0.000000
  176       14.432845     14.432845   0.000000   0.000000
  177       14.434166     14.434166   0.000000   0.000000
  178       14.617503     14.617503   0.000000   0.000000
  179       14.618660     14.618660   0.000000   0.000000
  180       14.623908     14.623908   0.000000   0.000000
  181       14.685230     14.685230   0.000000   0.000000
  182       14.693451     14.693451   0.000000   0.000000
  183       14.694118     14.694118   0.000000   0.000000
  184       14.821742     14.821742   0.000000   0.000000
  185       14.824251     14.824251   0.000000   0.000000
  186       14.865177     14.865177   0.000000   0.000000
  187       14.894770     14.894770   0.000000   0.000000
  188       14.958801     14.958801   0.000000   0.000000
  189       14.961581     14.961581   0.000000   0.000000
  190       15.127403     15.127403   0.000000   0.000000
  191       15.192580     15.192580   0.000000   0.000000
  192       15.194178     15.194178   0.000000   0.000000
  193       15.265977     15.265977   0.000000   0.000000
  194       15.312229     15.312229   0.000000   0.000000
  195       15.314644     15.314644   0.000000   0.000000
  196       15.530308     15.530308   0.000000   0.000000
  197       15.558973     15.558973   0.000000   0.000000
  198       15.559794     15.559794   0.000000   0.000000
 
  0.2500000E+00 -0.2500000E+00  0.2500000E+00  0.2500000E+00
    1      -14.093192    -14.093192   1.000000   1.000000
    2      -13.791668    -13.791668   1.000000   1.000000
    3      -13.789787    -13.789787   1.000000   1.000000
    4      -13.647769    -13.647769   1.000000   1.000000
    5      -13.446766    -13.446766   1.000000   1.000000
    6      -13.446023    -13.446023   1.000000   1.000000
    7      -13.423897    -13.423897   1.000000   1.000000
    8      -13.277250    -13.277250   1.000000   1.000000
    9      -13.275398    -13.275398   1.000000   1.000000
   10      -13.221977    -13.221977   1.000000   1.000000
   11      -13.151784    -13.151784   1.000000   1.000000
   12      -13.103502    -13.103502   1.000000   1.000000
   13      -13.102214    -13.102214   1.000000   1.000000
   14      -13.093216    -13.093216   1.000000   1.000000
   15      -12.988490    -12.988490   1.000000   1.000000
   16      -12.967549    -12.967549   1.000000   1.000000
   17      -12.966238    -12.966238   1.000000   1.000000
   18      -12.930664    -12.930664   1.000000   1.000000
   19      -12.930152    -12.930152   1.000000   1.000000
   20      -12.909262    -12.909262   1.000000   1.000000
   21      -12.859335    -12.859335   1.000000   1.000000
   22      -12.857691    -12.857691   1.000000   1.000000
   23      -12.817760    -12.817760   1.000000   1.000000
   24      -12.808033    -12.808033   1.000000   1.000000
   25      -12.807292    -12.807292   1.000000   1.000000
   26      -12.689187    -12.689187   1.000000   1.000000
   27      -12.688645    -12.688645   1.000000   1.000000
   28      -12.683595    -12.683595   1.000000   1.000000
   29      -12.681561    -12.681561   1.000000   1.000000
   30      -12.673669    -12.673669   1.000000   1.000000
   31      -12.672775    -12.672775   1.000000   1.000000
   32       -1.456455     -1.456455   1.000000   1.000000
   33       -1.455981     -1.455981   1.000000   1.000000
   34       -1.432073     -1.432073   1.000000   1.000000
   35       -1.232468     -1.232468   1.000000   1.000000
   36       -1.138553     -1.138553   1.000000   1.000000
   37       -1.011452     -1.011452   1.000000   1.000000
   38       -1.010034     -1.010034   1.000000   1.000000
   39       -0.931700     -0.931700   1.000000   1.000000
   40       -0.930647     -0.930647   1.000000   1.000000
   41       -0.919541     -0.919541   1.000000   1.000000
   42       -0.874127     -0.874127   1.000000   1.000000
   43       -0.812930     -0.812930   1.000000   1.000000
   44       -0.812675     -0.812675   1.000000   1.000000
   45       -0.752923     -0.752923   1.000000   1.000000
   46       -0.738909     -0.738909   1.000000   1.000000
   47       -0.737631     -0.737631   1.000000   1.000000
   48       -0.639859     -0.639859   1.000000   1.000000
   49       -0.615851     -0.615851   1.000000   1.000000
   50       -0.615136     -0.615136   1.000000   1.000000
   51       -0.586166     -0.586166   1.000000   1.000000
   52       -0.540363     -0.540363   1.000000   1.000000
   53       -0.539525     -0.539525   1.000000   1.000000
   54       -0.440493     -0.440493   1.000000   1.000000
   55       -0.436305     -0.436305   1.000000   1.000000
   56       -0.435103     -0.435103   1.000000   1.000000
   57       -0.222788     -0.222788   1.000000   1.000000
   58       -0.222028     -0.222028   1.000000   1.000000
   59       -0.210271     -0.210271   1.000000   1.000000
   60        0.367104      0.367104   1.000000   1.000000
   61        0.376461      0.376461   1.000000   1.000000
   62        0.377328      0.377328   1.000000   1.000000
   63        0.398851      0.398851   1.000000   1.000000
   64        0.399243      0.399243   1.000000   1.000000
   65        0.413974      0.413974   1.000000   1.000000
   66        0.415103      0.415103   1.000000   1.000000
   67        0.496295      0.496295   1.000000   1.000000
   68        0.525593      0.525593   1.000000   1.000000
   69        0.525951      0.525951   1.000000   1.000000
   70        0.736922      0.736922   1.000000   1.000000
   71        0.737685      0.737685   1.000000   1.000000
   72        1.018009      1.018009   1.000000   1.000000
   73        1.107142      1.107142   1.000000   1.000000
   74        1.107874      1.107874   1.000000   1.000000
   75        1.119081      1.119081   1.000000   1.000000
   76        1.119781      1.119781   1.000000   1.000000
   77        1.124898      1.124898   1.000000   1.000000
   78        1.150476      1.150476   1.000000   1.000000
   79        1.253138      1.253138   1.000000   1.000000
   80        1.254051      1.254051   1.000000   1.000000
   81        1.431582      1.431582   1.000000   1.000000
   82        1.432268      1.432268   1.000000   1.000000
   83        1.475604      1.475604   1.000000   1.000000
   84        1.478893      1.478893   1.000000   1.000000
   85        1.516183      1.516183   1.000000   1.000000
   86        1.516962      1.516962   1.000000   1.000000
   87        1.560994      1.560994   1.000000   1.000000
   88        1.561740      1.561740   1.000000   1.000000
   89        1.572957      1.572957   1.000000   1.000000
   90        1.575416      1.575416   1.000000   1.000000
   91        1.668790      1.668790   1.000000   1.000000
   92        1.670269      1.670269   1.000000   1.000000
   93        1.748952      1.748952   1.000000   1.000000
   94        1.749940      1.749940   1.000000   1.000000
   95        1.785545      1.785545   1.000000   1.000000
   96        1.816150      1.816150   1.000000   1.000000
   97        1.824491      1.824491   1.000000   1.000000
   98        1.824552      1.824552   1.000000   1.000000
   99        1.870497      1.870497   1.000000   1.000000
  100        1.871263      1.871263   1.000000   1.000000
  101        1.875056      1.875056   1.000000   1.000000
  102        1.908296      1.908296   1.000000   1.000000
  103        1.929203      1.929203   1.000000   1.000000
  104        1.956614      1.956614   1.000000   1.000000
  105        1.957359      1.957359   1.000000   1.000000
  106        2.002603      2.002603   1.000000   1.000000
  107        2.021786      2.021786   1.000000   1.000000
  108        2.022594      2.022594   1.000000   1.000000
  109        2.078639      2.078639   1.000000   1.000000
  110        2.079124      2.079124   1.000000   1.000000
  111        2.127344      2.127344   1.000000   1.000000
  112        2.246577      2.246577   1.000000   1.000000
  113        2.247540      2.247540   1.000000   1.000000
  114        2.296382      2.296382   1.000000   1.000000