       N       E                     dE             d eps       ncg     rms          rms(c)
DAV:   1    -0.399383157870E+03   -0.39938E+03   -0.20851E-06  2592   0.101E-02    0.313E-03
DAV:   2    -0.399383157596E+03    0.27429E-06   -0.14545E-06  1872   0.440E-03
   1 F= -.39938316E+03 E0= -.39938316E+03  d E =-.399383E+03  mag=    -0.0000
