PROCAR new format
# of k-points:    4         # of bands:  198         # of ions:   63

 k-point     1 :    0.25000000 0.25000000 0.25000000     weight = 0.25000000

band     1 # energy  -14.09327246 # occ.  1.00000000
 
ion      s      p      d    tot
    1  0.002  0.000  0.000  0.002
    2  0.001  0.000  0.000  0.001
    3  0.001  0.000  0.000  0.001
    4  0.001  0.000  0.000  0.001
    5  0.002  0.000  0.000  0.002
    6  0.001  0.000  0.000  0.001
    7  0.001  0.000  0.000  0.001
    8  0.001  0.000  0.000  0.001
    9  0.001  0.000  0.000  0.001
   10  0.001  0.000  0.000  0.001
   11  0.001  0.000  0.000  0.001
   12  0.001  0.000  0.000  0.001
   13  0.001  0.000  0.000  0.001
   14  0.001  0.000  0.000  0.001
   15  0.001  0.000  0.000  0.001
   16  0.001  0.000  0.000  0.001
   17  0.002  0.000  0.000  0.002
   18  0.002  0.000  0.000  0.002
   19  0.001  0.000  0.000  0.001
   20  0.001  0.000  0.000  0.001
   21  0.001  0.000  0.000  0.001
   22  0.001  0.000  0.000  0.001
   23  0.001  0.000  0.000  0.001
   24  0.001  0.000  0.000  0.001
   25  0.002  0.000  0.000  0.002
   26  0.001  0.000  0.000  0.001
   27  0.002  0.000  0.000  0.002
   28  0.001  0.000  0.000  0.001
   29  0.001  0.000  0.000  0.001
   30  0.001  0.000  0.000  0.001
   31  0.001  0.000  0.000  0.001
   32  0.001  0.000  0.000  0.001
   33  0.055  0.000  0.000  0.055
   34  0.054  0.000  0.000  0.054
   35  0.017  0.000  0.000  0.017
   36  0.056  0.000  0.000  0.056
   37  0.017  0.000  0.000  0.017
   38  0.017  0.000  0.000  0.017
   39  0.008  0.000  0.000  0.008
   40  0.027  0.000  0.000  0.027
   41  0.024  0.000  0.000  0.024
   42  0.024  0.000  0.000  0.024
   43  0.028  0.000  0.000  0.028
   44  0.014  0.000  0.000  0.014
   45  0.014  0.000  0.000  0.014
   46  0.014  0.000  0.000  0.014
   47  0.014  0.000  0.000  0.014
   48  0.024  0.000  0.000  0.024
   49  0.028  0.000  0.000  0.028
   50  0.013  0.000  0.000  0.013
   51  0.014  0.000  0.000  0.014
   52  0.028  0.000  0.000  0.028
   53  0.024  0.000  0.000  0.024
   54  0.014  0.000  0.000  0.014
   55  0.013  0.000  0.000  0.013
   56  0.024  0.000  0.000  0.024
   57  0.013  0.000  0.000  0.013
   58  0.028  0.000  0.000  0.028
   59  0.014  0.000  0.000  0.014
   60  0.028  0.000  0.000  0.028
   61  0.014  0.000  0.000  0.014
   62  0.024  0.000  0.000  0.024
   63  0.013  0.000  0.000  0.013
tot    0.733  0.004  0.000  0.737
 
band     2 # energy  -13.79120154 # occ.  1.00000000
 
ion      s      p      d    tot
    1  0.002  0.001  0.000  0.003
    2  0.001  0.000  0.000  0.001
    3  0.000  0.000  0.000  0.000
    4  0.000  0.000  0.000  0.000
    5  0.002  0.001  0.000  0.003
    6  0.001  0.000  0.000  0.001
    7  0.000  0.000  0.000  0.000
    8  0.000  0.000  0.000  0.000
    9  0.001  0.000  0.000  0.001
   10  0.000  0.000  0.000  0.000
   11  0.001  0.000  0.000  0.001
   12  0.000  0.000  0.000  0.000
   13  0.000  0.000  0.000  0.000
   14  0.001  0.000  0.000  0.001
   15  0.000  0.000  0.000  0.000
   16  0.001  0.000  0.000  0.001
   17  0.002  0.001  0.000  0.003
   18  0.002  0.001  0.000  0.003
   19  0.000  0.000  0.000  0.000
   20  0.000  0.000  0.000  0.001
   21  0.001  0.000  0.000  0.002
   22  0.001  0.000  0.000  0.002
   23  0.000  0.000  0.000  0.000
   24  0.000  0.000  0.000  0.000
   25  0.000  0.000  0.000  0.000
   26  0.002  0.000  0.000  0.002
   27  0.000  0.000  0.000  0.000
   28  0.002  0.000  0.000  0.002
   29  0.002  0.000  0.000  0.002
   30  0.000  0.000  0.000  0.000
   31  0.002  0.000  0.000  0.002
   32  0.000  0.000  0.000  0.000
   33  0.137  0.000  0.000  0.137
   34  0.001  0.000  0.000  0.001
   35  0.021  0.000  0.000  0.021
   36  0.159  0.000  0.000  0.159
   37  0.000  0.000  0.000  0.000
   38  0.018  0.000  0.000  0.018
   39  0.000  0.000  0.000  0.000
   40  0.021  0.000  0.000  0.021
   41  0.018  0.000  0.000  0.018
   42  0.017  0.000  0.000  0.017
   43  0.021  0.000  0.000  0.021
   44  0.013  0.000  0.000  0.013
   45  0.011  0.000  0.000  0.011
   46  0.012  0.000  0.000  0.012
   47  0.013  0.000  0.000  0.013
   48  0.054  0.000  0.000  0.054
   49  0.000  0.000  0.000  0.000
   50  0.011  0.000  0.000  0.011
   51  0.000  0.000  0.000  0.000
   52  0.000  0.000  0.000  0.000
   53  0.053  0.000  0.000  0.053
   54  0.000  0.000  0.000  0.000
   55  0.012  0.000  0.000  0.012
   56  0.021  0.000  0.000  0.021
   57  0.012  0.000  0.000  0.012
   58  0.018  0.000  0.000  0.018
   59  0.011  0.000  0.000  0.011
   60  0.018  0.000  0.000  0.018
   61  0.011  0.000  0.000  0.011
   62  0.023  0.000  0.000  0.023
   63  0.011  0.000  0.000  0.012
tot    0.746  0.009  0.001  0.756
 
band     3 # energy  -13.78937987 # occ.  1.00000000
 
ion      s      p      d    tot
    1  0.001  0.000  0.000  0.001
    2  0.001  0.000  0.000  0.001
    3  0.002  0.000  0.000  0.002
    4  0.000  0.000  0.000  0.000
    5  0.001  0.000  0.000  0.001
    6  0.001  0.000  0.000  0.001
    7  0.002  0.000  0.000  0.002
    8  0.000  0.000  0.000  0.000
    9  0.000  0.000  0.000  0.000
   10  0.001  0.000  0.000  0.002
   11  0.000  0.000  0.000  0.001
   12  0.000  0.000  0.000  0.000
   13  0.000  0.000  0.000  0.000
   14  0.000  0.000  0.000  0.001
   15  0.001  0.000  0.000  0.002
   16  0.000  0.000  0.000  0.000
   17  0.001  0.000  0.000  0.001
   18  0.001  0.000  0.000  0.001
   19  0.002  0.000  0.000  0.002
   20  0.002  0.000  0.000  0.002
   21  0.001  0.000  0.000  0.001
   22  0.001  0.000  0.000  0.001
   23  0.000  0.000  0.000  0.000
   24  0.000  0.000  0.000  0.000
   25  0.003  0.001  0.000  0.004
   26  0.000  0.000  0.000  0.001
   27  0.003  0.001  0.000  0.004
   28  0.000  0.000  0.000  0.001
   29  0.000  0.000  0.000  0.001
   30  0.000  0.000  0.000  0.000
   31  0.000  0.000  0.000  0.001
   32  0.000  0.000  0.000  0.000
   33  0.060  0.000  0.000  0.060
   34  0.194  0.000  0.000  0.194
   35  0.005  0.000  0.000  0.005
   36  0.040  0.000  0.000  0.040
   37  0.026  0.000  0.000  0.026
   38  0.008  0.000  0.000  0.008
   39  0.000  0.000  0.000  0.000
   40  0.005  0.000  0.000  0.005
   41  0.044  0.000  0.000  0.044
   42  0.046  0.000  0.000  0.046
   43  0.005  0.000  0.000  0.005
   44  0.003  0.000  0.000  0.003
   45  0.012  0.000  0.000  0.012
   46  0.011  0.000  0.000  0.011
   47  0.003  0.000  0.000  0.003
   48  0.008  0.000  0.000  0.008
   49  0.026  0.000  0.000  0.026
   50  0.012  0.000  0.000  0.013
   51  0.016  0.000  0.000  0.016
   52  0.026  0.000  0.000  0.026
   53  0.009  0.000  0.000  0.009
   54  0.016  0.000  0.000  0.016
   55  0.012  0.000  0.000  0.012
   56  0.041  0.000  0.000  0.041
   57  0.011  0.000  0.000  0.011
   58  0.008  0.000  0.000  0.008
   59  0.005  0.000  0.000  0.005
   60  0.008  0.000  0.000  0.008
   61  0.005  0.000  0.000  0.005
   62  0.039  0.000  0.000  0.039
   63  0.012  0.000  0.000  0.012
tot    0.746  0.009  0.001  0.756
 
band     4 # energy  -13.64911537 # occ.  1.00000000
 
ion      s      p      d    tot
    1  0.001  0.000  0.000  0.001
    2  0.000  0.000  0.000  0.001
    3  0.000  0.000  0.000  0.001
    4  0.001  0.000  0.000  0.001
    5  0.001  0.000  0.000  0.001
    6  0.000  0.000  0.000  0.001
    7  0.000  0.000  0.000  0.001
    8  0.001  0.000  0.000  0.001
    9  0.000  0.000  0.000  0.001
   10  0.000  0.000  0.000  0.001
   11  0.000  0.000  0.000  0.001
   12  0.003  0.000  0.000  0.003
   13  0.003  0.000  0.000  0.003
   14  0.000  0.000  0.000  0.001
   15  0.000  0.000  0.000  0.001
   16  0.000  0.000  0.000  0.001
   17  0.001  0.000  0.000  0.001
   18  0.001  0.000  0.000  0.001
   19  0.000  0.000  0.000  0.001
   20  0.000  0.000  0.000  0.001
   21  0.000  0.000  0.000  0.001
   22  0.000  0.000  0.000  0.001
   23  0.001  0.000  0.000  0.001
   24  0.001  0.000  0.000  0.001
   25  0.001  0.000  0.000  0.001
   26  0.000  0.000  0.000  0.001
   27  0.001  0.000  0.000  0.001
   28  0.000  0.000  0.000  0.001
   29  0.000  0.000  0.000  0.001
   30  0.001  0.000  0.000  0.001
   31  0.000  0.000  0.000  0.001
   32  0.001  0.000  0.000  0.001
   33  0.012  0.000  0.000  0.012
   34  0.012  0.000  0.000  0.012
   35  0.021  0.000  0.000  0.021
   36  0.012  0.000  0.000  0.012
   37  0.022  0.000  0.000  0.022
   38  0.022  0.000  0.000  0.022
   39  0.049  0.000  0.000  0.049
   40  0.050  0.000  0.000  0.050
   41  0.005  0.000  0.000  0.005
   42  0.005  0.000  0.000  0.005
   43  0.050  0.000  0.000  0.050
   44  0.032  0.000  0.000  0.032
   45  0.008  0.000  0.000  0.008
   46  0.008  0.000  0.000  0.008
   47  0.032  0.000  0.000  0.032
   48  0.005  0.000  0.000  0.005
   49  0.051  0.000  0.000  0.051
   50  0.008  0.000  0.000  0.008
   51  0.032  0.000  0.000  0.032
   52  0.051  0.000  0.000  0.051
   53  0.005  0.000  0.000  0.005
   54  0.032  0.000  0.000  0.032
   55  0.008  0.000  0.000  0.008
   56  0.005  0.000  0.000  0.005
   57  0.008  0.000  0.000  0.008
   58  0.051  0.000  0.000  0.051
   59  0.032  0.000  0.000  0.032
   60  0.051  0.000  0.000  0.051
   61  0.032  0.000  0.000  0.032
   62  0.005  0.000  0.000  0.005
   63  0.008  0.000  0.000  0.008
tot    0.744  0.008  0.001  0.752
 
band     5 # energy  -13.44670109 # occ.  1.00000000
 
ion      s      p      d    tot
    1  0.000  0.000  0.000  0.001
    2  0.000  0.000  0.000  0.001
    3  0.001  0.001  0.000  0.002
    4  0.000  0.000  0.000  0.000
    5  0.000  0.000  0.000  0.001
    6  0.000  0.000  0.000  0.001
    7  0.001  0.001  0.000  0.002
    8  0.000  0.000  0.000  0.000
    9  0.000  0.000  0.000  0.000
   10  0.000  0.000  0.000  0.001
   11  0.001  0.000  0.000  0.001
   12  0.000  0.000  0.000  0.000
   13  0.000  0.000  0.000  0.000
   14  0.001  0.000  0.000  0.001
   15  0.000  0.000  0.000  0.001
   16  0.000  0.000  0.000  0.000
   17  0.000  0.001  0.000  0.001
   18  0.000  0.001  0.000  0.001
   19  0.000  0.000  0.000  0.001
   20  0.000  0.000  0.000  0.001
   21  0.001  0.000  0.000  0.001
   22  0.001  0.000  0.000  0.001
   23  0.001  0.000  0.000  0.002
   24  0.001  0.000  0.000  0.001
   25  0.000  0.000  0.000  0.001
   26  0.000  0.000  0.000  0.001
   27  0.000  0.000  0.000  0.001
   28  0.000  0.000  0.000  0.001
   29  0.001  0.001  0.000  0.002
   30  0.000  0.000  0.000  0.001
   31  0.001  0.001  0.000  0.002
   32  0.000  0.000  0.000  0.001
   33  0.096  0.000  0.000  0.096
   34  0.025  0.000  0.000  0.025
   35  0.029  0.000  0.000  0.029
   36  0.020  0.000  0.000  0.020
   37  0.038  0.000  0.000  0.038
   38  0.131  0.000  0.000  0.131
   39  0.000  0.000  0.000  0.000
   40  0.008  0.000  0.000  0.008
   41  0.008  0.000  0.000  0.008
   42  0.009  0.000  0.000  0.009
   43  0.008  0.000  0.000  0.008
   44  0.003  0.000  0.000  0.003
   45  0.043  0.000  0.000  0.043
   46  0.042  0.000  0.000  0.042
   47  0.003  0.000  0.000  0.003
   48  0.009  0.000  0.000  0.009
   49  0.010  0.000  0.000  0.010
   50  0.040  0.000  0.000  0.040
   51  0.003  0.000  0.000  0.004
   52  0.010  0.000  0.000  0.010
   53  0.010  0.000  0.000  0.010
   54  0.004  0.000  0.000  0.004
   55  0.039  0.000  0.000  0.039
   56  0.023  0.000  0.000  0.023
   57  0.001  0.000  0.000  0.001
   58  0.037  0.000  0.000  0.037
   59  0.014  0.000  0.000  0.014
   60  0.038  0.000  0.000  0.038
   61  0.013  0.000  0.000  0.014
   62  0.023  0.000  0.000  0.023
   63  0.001  0.000  0.000  0.001
tot    0.755  0.012  0.001  0.768
 
band     6 # energy  -13.44559473 # occ.  1.00000000
 
ion      s      p      d    tot
    1  0.000  0.001  0.000  0.001
    2  0.001  0.000  0.000  0.001
    3  0.000  0.000  0.000  0.000
    4  0.001  0.000  0.000  0.001
    5  0.000  0.001  0.000  0.001
    6  0.001  0.000  0.000  0.001
    7  0.000  0.000  0.000  0.000
    8  0.001  0.000  0.000  0.001
    9  0.001  0.000  0.000  0.001
   10  0.001  0.000  0.000  0.001
   11  0.000  0.000  0.000  0.000
   12  0.000  0.000  0.000  0.000
   13  0.000  0.000  0.000  0.000
   14  0.000  0.000  0.000  0.000
   15  0.001  0.000  0.000  0.001
   16  0.001  0.000  0.000  0.001
   17  0.000  0.000  0.000  0.000
   18  0.000  0.000  0.000  0.000
   19  0.001  0.001  0.000  0.002
   20  0.001  0.001  0.000  0.002
   21  0.001  0.001  0.000  0.002
   22  0.001  0.001  0.000  0.001
   23  0.000  0.000  0.000  0.000
   24  0.000  0.000  0.000  0.000
   25  0.000  0.001  0.000  0.001
   26  0.001  0.000  0.000  0.001
   27  0.000  0.001  0.000  0.001
   28  0.001  0.000  0.000  0.001
   29  0.000  0.000  0.000  0.000
   30  0.001  0.000  0.000  0.001
   31  0.000  0.000  0.000  0.000
   32  0.001  0.000  0.000  0.001
   33  0.000  0.000  0.000  0.000
   34  0.062  0.000  0.000  0.062
   35  0.099  0.000  0.000  0.099
   36  0.079  0.000  0.000  0.079
   37  0.097  0.000  0.000  0.097
   38  0.000  0.000  0.000  0.000
   39  0.000  0.000  0.000  0.000
   40  0.031  0.000  0.000  0.031
   41  0.018  0.000  0.000  0.018
   42  0.018  0.000  0.000  0.018
   43  0.033  0.000  0.000  0.033
   44  0.011  0.000  0.000  0.011
   45  0.012  0.000  0.000  0.012
   46  0.013  0.000  0.000  0.013
   47  0.010  0.000  0.000  0.010
   48  0.020  0.000  0.000  0.020
   49  0.023  0.000  0.000  0.023
   50  0.016  0.000  0.000  0.016
   51  0.009  0.000  0.000  0.009
   52  0.025  0.000  0.000  0.025
   53  0.019  0.000  0.000  0.019
   54  0.009  0.000  0.000  0.009
   55  0.016  0.000  0.000  0.016
   56  0.003  0.000  0.000  0.003
   57  0.055  0.000  0.000  0.055
   58  0.000  0.000  0.000  0.000
   59  0.000  0.000  0.000  0.000
   60  0.000  0.000  0.000  0.000
   61  0.000  0.000  0.000  0.000
   62  0.005  0.000  0.000  0.005
   63  0.053  0.000  0.000  0.053
tot    0.755  0.012  0.001  0.768
 
band     7 # energy  -13.42441964 # occ.  1.00000000
 
ion      s      p      d    tot
    1  0.001  0.000  0.000  0.002
    2  0.000  0.000  0.000  0.000
    3  0.000  0.000  0.000  0.001
    4  0.001  0.000  0.000  0.001
    5  0.001  0.000  0.000  0.002
    6  0.000  0.000  0.000  0.000
    7  0.000  0.000  0.000  0.001
    8  0.001  0.000  0.000  0.001
    9  0.000  0.000  0.000  0.001
   10  0.001  0.000  0.000  0.001
   11  0.000  0.000  0.000  0.001
   12  0.001  0.001  0.000  0.001
   13  0.001  0.001  0.000  0.001
   14  0.000  0.000  0.000  0.001
   15  0.001  0.000  0.000  0.001
   16  0.000  0.000  0.000  0.001
   17  0.001  0.000  0.000  0.002
   18  0.001  0.000  0.000  0.002
   19  0.000  0.000  0.000  0.001
   20  0.000  0.000  0.000  0.001
   21  0.000  0.000  0.000  0.000
   22  0.000  0.000  0.000  0.000
   23  0.001  0.000  0.000  0.001
   24  0.001  0.000  0.000  0.001
   25  0.001  0.001  0.000  0.002
   26  0.000  0.000  0.000  0.000
   27  0.001  0.001  0.000  0.002
   28  0.000  0.000  0.000  0.000
   29  0.000  0.000  0.000  0.000
   30  0.001  0.000  0.000  0.001
   31  0.000  0.000  0.000  0.000
   32  0.001  0.000  0.000  0.001
   33  0.048  0.000  0.000  0.048
   34  0.056  0.000  0.000  0.056
   35  0.005  0.000  0.000  0.005
   36  0.046  0.000  0.000  0.046
   37  0.002  0.000  0.000  0.002
   38  0.005  0.000  0.000  0.005
   39  0.044  0.000  0.000  0.044
   40  0.050  0.000  0.000  0.050
   41  0.024  0.000  0.000  0.024
   42  0.024  0.000  0.000  0.024
   43  0.049  0.000  0.000  0.049
   44  0.008  0.000  0.000  0.008
   45  0.007  0.000  0.000  0.007
   46  0.007  0.000  0.000  0.007
   47  0.009  0.000  0.000  0.009
   48  0.021  0.000  0.000  0.021
   49  0.054  0.000  0.000  0.054
   50  0.006  0.000  0.000  0.006
   51  0.010  0.000  0.000  0.010
   52  0.053  0.000  0.000  0.053
   53  0.020  0.000  0.000  0.020
   54  0.010  0.000  0.000  0.010
   55  0.007  0.000  0.000  0.007
   56  0.023  0.000  0.000  0.023
   57  0.006  0.000  0.000  0.006
   58  0.051  0.000  0.000  0.051
   59  0.009  0.000  0.000  0.009
   60  0.050  0.000  0.000  0.050
   61  0.009  0.000  0.000  0.009
   62  0.023  0.000  0.000  0.023
   63  0.007  0.000  0.000  0.007
tot    0.758  0.012  0.001  0.772
 
band     8 # energy  -13.27587919 # occ.  1.00000000
 
ion      s      p      d    tot
    1  0.001  0.001  0.000  0.002
    2  0.000  0.000  0.000  0.001
    3  0.000  0.000  0.000  0.000
    4  0.000  0.000  0.000  0.000
    5  0.001  0.001  0.000  0.002
    6  0.000  0.000  0.000  0.001
    7  0.000  0.000  0.000  0.000
    8  0.000  0.000  0.000  0.000
    9  0.001  0.000  0.000  0.001
   10  0.000  0.000  0.000  0.000
   11  0.001  0.000  0.000  0.001
   12  0.000  0.000  0.000  0.000
   13  0.000  0.000  0.000  0.000
   14  0.001  0.000  0.000  0.001
   15  0.000  0.000  0.000  0.000
   16  0.001  0.000  0.000  0.001
   17  0.001  0.001  0.000  0.002
   18  0.001  0.001  0.000  0.002
   19  0.000  0.000  0.000  0.000
   20  0.000  0.000  0.000  0.000
   21  0.000  0.000  0.000  0.001
   22  0.000  0.000  0.000  0.001
   23  0.000  0.000  0.000  0.000
   24  0.000  0.000  0.000  0.000
   25  0.000  0.000  0.000  0.001
   26  0.000  0.000  0.000  0.001
   27  0.000  0.000  0.000  0.001
   28  0.000  0.000  0.000  0.001
   29  0.000  0.000  0.000  0.001
   30  0.000  0.000  0.000  0.000
   31  0.000  0.000  0.000  0.001
   32  0.000  0.000  0.000  0.000
   33  0.097  0.000  0.000  0.097
   34  0.001  0.000  0.000  0.001
   35  0.016  0.000  0.000  0.016
   36  0.092  0.000  0.000  0.092
   37  0.000  0.000  0.000  0.000
   38  0.017  0.000  0.000  0.017
   39  0.000  0.000  0.000  0.000
   40  0.012  0.000  0.000  0.012
   41  0.059  0.000  0.000  0.059
   42  0.042  0.000  0.000  0.042
   43  0.012  0.000  0.000  0.012
   44  0.011  0.000  0.000  0.011
   45  0.001  0.000  0.000  0.001
   46  0.001  0.000  0.000  0.001
   47  0.011  0.000  0.000  0.011
   48  0.128  0.000  0.000  0.128
   49  0.000  0.000  0.000  0.000
   50  0.003  0.000  0.000  0.003
   51  0.000  0.000  0.000  0.000
   52  0.000  0.000  0.000  0.000
   53  0.111  0.000  0.000  0.111
   54  0.000  0.000  0.000  0.000
   55  0.003  0.000  0.000  0.003
   56  0.036  0.000  0.000  0.036
   57  0.001  0.000  0.000  0.001
   58  0.014  0.000  0.000  0.014
   59  0.011  0.000  0.000  0.011
   60  0.014  0.000  0.000  0.014
   61  0.012  0.000  0.000  0.012
   62  0.053  0.000  0.000  0.053
   63  0.001  0.000  0.000  0.001
tot    0.769  0.011  0.003  0.783
 
band     9 # energy  -13.27446707 # occ.  1.00000000
 
ion      s      p      d    tot
    1  0.000  0.001  0.000  0.001
    2  0.000  0.000  0.000  0.000
    3  0.000  0.000  0.000  0.001
    4  0.000  0.000  0.000  0.000
    5  0.000  0.001  0.000  0.001
    6  0.000  0.000  0.000  0.001
    7  0.000  0.000  0.000  0.001
    8  0.000  0.000  0.000  0.000
    9  0.000  0.000  0.000  0.001
   10  0.001  0.000  0.000  0.002
   11  0.000  0.000  0.000  0.001
   12  0.000  0.000  0.000  0.000
   13  0.000  0.000  0.000  0.000
   14  0.000  0.000  0.000  0.001
   15  0.001  0.000  0.000  0.002
   16  0.000  0.000  0.000  0.001
   17  0.000  0.001  0.000  0.001
   18  0.000  0.001  0.000  0.001
   19  0.000  0.000  0.000  0.001
   20  0.000  0.000  0.000  0.001
   21  0.000  0.000  0.000  0.000
   22  0.000  0.000  0.000  0.001
   23  0.000  0.000  0.000  0.000
   24  0.000  0.000  0.000  0.000
   25  0.001  0.001  0.000  0.002
   26  0.000  0.000  0.000  0.000
   27  0.001  0.001  0.000  0.002
   28  0.000  0.000  0.000  0.001
   29  0.000  0.000  0.000  0.001
   30  0.000  0.000  0.000  0.000
   31  0.000  0.000  0.000  0.000
   32  0.000  0.000  0.000  0.000
   33  0.030  0.000  0.000  0.030
   34  0.125  0.000  0.000  0.125
   35  0.006  0.000  0.000  0.006
   36  0.037  0.000  0.000  0.037
   37  0.021  0.000  0.000  0.021
   38  0.005  0.000  0.000  0.005
   39  0.000  0.000  0.000  0.000
   40  0.005  0.000  0.000  0.005
   41  0.083  0.000  0.000  0.083
   42  0.101  0.000  0.000  0.101
   43  0.005  0.000  0.000  0.005
   44  0.004  0.000  0.000  0.004
   45  0.002  0.000  0.000  0.002
   46  0.002  0.000  0.000  0.002
   47  0.004  0.000  0.000  0.004
   48  0.016  0.000  0.000  0.016
   49  0.018  0.000  0.000  0.018
   50  0.000  0.000  0.000  0.000
   51  0.015  0.000  0.000  0.015
   52  0.018  0.000  0.000  0.018
   53  0.033  0.000  0.000  0.033
   54  0.015  0.000  0.000  0.015
   55  0.000  0.000  0.000  0.000
   56  0.106  0.000  0.000  0.106
   57  0.002  0.000  0.000  0.002
   58  0.004  0.000  0.000  0.004
   59  0.003  0.000  0.000  0.003
   60  0.004  0.000  0.000  0.004
   61  0.003  0.000  0.000  0.003
   62  0.089  0.000  0.000  0.089
   63  0.002  0.000  0.000  0.002
tot    0.769  0.011  0.003  0.783
 
band    10 # energy  -13.22252570 # occ.  1.00000000
 
ion      s      p      d    tot
    1  0.000  0.000  0.000  0.001
    2  0.000  0.001  0.000  0.001
    3  0.000  0.001  0.000  0.001
    4  0.001  0.001  0.000  0.001
    5  0.000  0.000  0.000  0.001
    6  0.000  0.001  0.000  0.001
    7  0.000  0.001  0.000  0.001
    8  0.001  0.001  0.000  0.001
    9  0.000  0.000  0.000  0.000
   10  0.000  0.000  0.000  0.000
   11  0.000  0.000  0.000  0.000
   12  0.001  0.000  0.000  0.001
   13  0.001  0.000  0.000  0.001
   14  0.000  0.000  0.000  0.000
   15  0.000  0.000  0.000  0.000
   16  0.000  0.000  0.000  0.000
   17  0.000  0.000  0.000  0.001
   18  0.000  0.000  0.000  0.001
   19  0.000  0.001  0.000  0.001
   20  0.000  0.001  0.000  0.001
   21  0.000  0.001  0.000  0.001
   22  0.000  0.001  0.000  0.001
   23  0.001  0.001  0.000  0.001
   24  0.001  0.001  0.000  0.001
   25  0.000  0.000  0.000  0.001
   26  0.000  0.001  0.000  0.001
   27  0.000  0.000  0.000  0.001
   28  0.000  0.001  0.000  0.001
   29  0.000  0.001  0.000  0.001
   30  0.001  0.001  0.000  0.001
   31  0.000  0.001  0.000  0.001
   32  0.001  0.001  0.000  0.001
   33  0.064  0.000  0.000  0.064
   34  0.066  0.000  0.000  0.066
   35  0.048  0.000  0.000  0.048
   36  0.061  0.000  0.000  0.061
   37  0.051  0.000  0.000  0.051
   38  0.050  0.000  0.000  0.050
   39  0.071  0.000  0.000  0.071
   40  0.003  0.000  0.000  0.003
   41  0.002  0.000  0.000  0.002
   42  0.002  0.000  0.000  0.002
   43  0.003  0.000  0.000  0.003
   44  0.042  0.000  0.000  0.042
   45  0.010  0.000  0.000  0.011
   46  0.011  0.000  0.000  0.011
   47  0.041  0.000  0.000  0.041
   48  0.002  0.000  0.000  0.002
   49  0.003  0.000  0.000  0.003
   50  0.011  0.000  0.000  0.011
   51  0.042  0.000  0.000  0.042
   52  0.003  0.000  0.000  0.003
   53  0.002  0.000  0.000  0.002
   54  0.041  0.000  0.000  0.041
   55  0.011  0.000  0.000  0.011
   56  0.002  0.000  0.000  0.002
   57  0.011  0.000  0.000  0.011
   58  0.003  0.000  0.000  0.003
   59  0.042  0.000  0.000  0.042
   60  0.003  0.000  0.000  0.003
   61  0.042  0.000  0.000  0.042
   62  0.002  0.000  0.000  0.002
   63  0.011  0.000  0.000  0.011
tot    0.764  0.015  0.001  0.780
 
band    11 # energy  -13.15209886 # occ.  1.00000000
 
ion      s      p      d    tot
    1  0.000  0.001  0.000  0.001
    2  0.000  0.000  0.000  0.000
    3  0.000  0.000  0.000  0.000
    4  0.000  0.000  0.000  0.000
    5  0.000  0.001  0.000  0.001
    6  0.000  0.000  0.000  0.000
    7  0.000  0.000  0.000  0.000
    8  0.000  0.000  0.000  0.000
    9  0.000  0.000  0.000  0.001
   10  0.000  0.000  0.000  0.001
   11  0.000  0.000  0.000  0.001
   12  0.001  0.000  0.000  0.001
   13  0.001  0.000  0.000  0.001
   14  0.000  0.000  0.000  0.001
   15  0.000  0.000  0.000  0.001
   16  0.000  0.000  0.000  0.001
   17  0.000  0.001  0.000  0.001
   18  0.000  0.001  0.000  0.001
   19  0.000  0.000  0.000  0.000
   20  0.000  0.000  0.000  0.000
   21  0.000  0.000  0.000  0.000
   22  0.000  0.000  0.000  0.000
   23  0.000  0.000  0.000  0.000
   24  0.000  0.000  0.000  0.000
   25  0.000  0.001  0.000  0.001
   26  0.000  0.000  0.000  0.000
   27  0.000  0.001  0.000  0.001
   28  0.000  0.000  0.000  0.000
   29  0.000  0.000  0.000  0.000
   30  0.000  0.000  0.000  0.000
   31  0.000  0.000  0.000  0.000
   32  0.000  0.000  0.000  0.000
   33  0.024  0.000  0.000  0.024
   34  0.026  0.000  0.000  0.026
   35  0.000  0.000  0.000  0.000
   36  0.025  0.000  0.000  0.025
   37  0.000  0.000  0.000  0.000
   38  0.000  0.000  0.000  0.000
   39  0.050  0.000  0.000  0.050
   40  0.045  0.000  0.000  0.045
   41  0.043  0.000  0.000  0.043
   42  0.042  0.000  0.000  0.042
   43  0.046  0.000  0.000  0.046
   44  0.003  0.000  0.000  0.003
   45  0.013  0.000  0.000  0.013
   46  0.013  0.000  0.000  0.013
   47  0.002  0.000  0.000  0.002
   48  0.042  0.000  0.000  0.042
   49  0.048  0.000  0.000  0.048
   50  0.013  0.000  0.000  0.013
   51  0.002  0.000  0.000  0.002
   52  0.048  0.000  0.000  0.048
   53  0.043  0.000  0.000  0.043
   54  0.003  0.000  0.000  0.003
   55  0.013  0.000  0.000  0.013
   56  0.043  0.000  0.000  0.043
   57  0.012  0.000  0.000  0.012
   58  0.051  0.000  0.000  0.051
   59  0.002  0.000  0.000  0.002
   60  0.050  0.000  0.000  0.050
   61  0.002  0.000  0.000  0.003
   62  0.043  0.000  0.000  0.043
   63  0.013  0.000  0.000  0.013
tot    0.769  0.014  0.002  0.785
 
band    12 # energy  -13.10479639 # occ.  1.00000000
 
ion      s      p      d    tot
    1  0.000  0.001  0.000  0.001
    2  0.000  0.001  0.000  0.001
    3  0.000  0.001  0.000  0.001
    4  0.000  0.000  0.000  0.000
    5  0.000  0.001  0.000  0.001
    6  0.000  0.001  0.000  0.001
    7  0.000  0.001  0.000  0.001
    8  0.000  0.000  0.000  0.000
    9  0.000  0.000  0.000  0.000
   10  0.000  0.000  0.000  0.001
   11  0.001  0.000  0.000  0.001
   12  0.000  0.000  0.000  0.001
   13  0.000  0.000  0.000  0.001
   14  0.001  0.000  0.000  0.001
   15  0.000  0.000  0.000  0.001
   16  0.000  0.000  0.000  0.000
   17  0.000  0.001  0.000  0.001
   18  0.000  0.001  0.000  0.001
   19  0.000  0.000  0.000  0.000
   20  0.000  0.000  0.000  0.000
   21  0.000  0.000  0.000  0.001
   22  0.000  0.000  0.000  0.001
   23  0.000  0.000  0.000  0.001
   24  0.000  0.000  0.000  0.001
   25  0.000  0.001  0.000  0.001
   26  0.000  0.000  0.000  0.000
   27  0.000  0.001  0.000  0.001
   28  0.000  0.000  0.000  0.000
   29  0.000  0.001  0.000  0.001
   30  0.000  0.000  0.000  0.000
   31  0.000  0.001  0.000  0.001
   32  0.000  0.000  0.000  0.000
   33  0.028  0.000  0.000  0.028
   34  0.014  0.000  0.000  0.014
   35  0.012  0.000  0.000  0.012
   36  0.003  0.000  0.000  0.003
   37  0.065  0.000  0.000  0.065
   38  0.127  0.000  0.000  0.127
   39  0.000  0.000  0.000  0.000
   40  0.011  0.000  0.000  0.011
   41  0.005  0.000  0.000  0.005
   42  0.005  0.000  0.000  0.005
   43  0.011  0.000  0.000  0.011
   44  0.000  0.000  0.000  0.000
   45  0.005  0.000  0.000  0.005
   46  0.005  0.000  0.000  0.005
   47  0.000  0.000  0.000  0.000
   48  0.015  0.000  0.000  0.015
   49  0.058  0.000  0.000  0.058
   50  0.007  0.000  0.000  0.007
   51  0.000  0.000  0.000  0.000
   52  0.061  0.000  0.000  0.061
   53  0.015  0.000  0.000  0.015
   54  0.000  0.000  0.000  0.000
   55  0.007  0.000  0.000  0.007
   56  0.025  0.000  0.000  0.025
   57  0.011  0.000  0.000  0.011
   58  0.123  0.000  0.000  0.123
   59  0.001  0.000  0.000  0.001
   60  0.119  0.000  0.000  0.119
   61  0.001  0.000  0.000  0.001
   62  0.024  0.000  0.000  0.024
   63  0.011  0.000  0.000  0.011
tot    0.774  0.013  0.003  0.789
 
band    13 # energy  -13.10236516 # occ.  1.00000000
 
ion      s      p      d    tot
    1  0.000  0.001  0.000  0.001
    2  0.000  0.000  0.000  0.001
    3  0.000  0.000  0.000  0.000
    4  0.000  0.000  0.000  0.001
    5  0.000  0.001  0.000  0.001
    6  0.000  0.000  0.000  0.001
    7  0.000  0.000  0.000  0.000
    8  0.000  0.000  0.000  0.001
    9  0.001  0.000  0.000  0.001
   10  0.000  0.000  0.000  0.001
   11  0.000  0.000  0.000  0.000
   12  0.000  0.000  0.000  0.001
   13  0.000  0.000  0.000  0.001
   14  0.000  0.000  0.000  0.000
   15  0.000  0.000  0.000  0.001
   16  0.001  0.000  0.000  0.001
   17  0.000  0.001  0.000  0.001
   18  0.000  0.001  0.000  0.001
   19  0.000  0.001  0.000  0.001
   20  0.000  0.001  0.000  0.001
   21  0.000  0.001  0.000  0.001
   22  0.000  0.001  0.000  0.001
   23  0.000  0.000  0.000  0.000
   24  0.000  0.000  0.000  0.000
   25  0.000  0.001  0.000  0.001
   26  0.000  0.001  0.000  0.001
   27  0.000  0.001  0.000  0.001
   28  0.000  0.001  0.000  0.001
   29  0.000  0.000  0.000  0.000
   30  0.000  0.000  0.000  0.000
   31  0.000  0.000  0.000  0.000
   32  0.000  0.000  0.000  0.000
   33  0.002  0.000  0.000  0.002
   34  0.018  0.000  0.000  0.018
   35  0.121  0.000  0.000  0.121
   36  0.023  0.000  0.000  0.023
   37  0.075  0.000  0.000  0.075
   38  0.008  0.000  0.000  0.008
   39  0.000  0.000  0.000  0.000
   40  0.116  0.000  0.000  0.116
   41  0.023  0.000  0.000  0.023
   42  0.024  0.000  0.000  0.024
   43  0.125  0.000  0.000  0.125
   44  0.001  0.000  0.000  0.001
   45  0.011  0.000  0.000  0.011
   46  0.011  0.000  0.000  0.011
   47  0.001  0.000  0.000  0.001
   48  0.017  0.000  0.000  0.017
   49  0.064  0.000  0.000  0.064
   50  0.008  0.000  0.000  0.008
   51  0.000  0.000  0.000  0.000
   52  0.066  0.000  0.000  0.066
   53  0.016  0.000  0.000  0.016
   54  0.001  0.000  0.000  0.001
   55  0.008  0.000  0.000  0.008
   56  0.004  0.000  0.000  0.004
   57  0.005  0.000  0.000  0.005
   58  0.006  0.000  0.000  0.006
   59  0.000  0.000  0.000  0.000
   60  0.006  0.000  0.000  0.006
   61  0.000  0.000  0.000  0.000
   62  0.005  0.000  0.000  0.005
   63  0.004  0.000  0.000  0.004
tot    0.774  0.013  0.003  0.789
 
band    14 # energy  -13.09394103 # occ.  1.00000000
 
ion      s      p      d    tot
    1  0.000  0.001  0.000  0.001
    2  0.000  0.000  0.000  0.000
    3  0.000  0.000  0.000  0.000
    4  0.000  0.000  0.000  0.001
    5  0.000  0.001  0.000  0.001
    6  0.000  0.000  0.000  0.000
    7  0.000  0.000  0.000  0.000
    8  0.000  0.000  0.000  0.001