unknown system                          
           1
     8.493727    0.000000    0.000000
     0.000000    8.493727    0.000000
     0.000000    0.000000    8.493727
   Mg   O 
  32  31
Direct configuration=     1
   0.97950046  0.99973671  0.99996469
   0.99735118  0.99942413  0.50004452
   0.99735797  0.49966161  0.99977971
   0.99855914  0.49944920  0.49983214
   0.52028859  0.99996908  0.00018383
   0.50242983  0.99967457  0.50000713
   0.50252100  0.49987314  0.99996825
   0.50118615  0.49965294  0.49990198
   0.00018239  0.24946190  0.24982419
   0.00032299  0.24946447  0.75000571
   0.99987992  0.74972236  0.24979044
   0.00001884  0.74966016  0.75010156
   0.49983226  0.24969148  0.24985197
   0.49994449  0.24967792  0.75013351
   0.49943955  0.74989311  0.24991688
   0.49948871  0.74989781  0.75013588
   0.24979839  0.99958297  0.27040901
   0.24995673  0.99956418  0.72948942
   0.24983521  0.49956916  0.25241240
   0.25003852  0.49958858  0.74729493
   0.74989006  0.99988891  0.25255558
   0.74986976  0.99984839  0.74758740
   0.74988925  0.49985429  0.25110720
   0.74996335  0.49986982  0.74869517
   0.25013098  0.27015235  0.99986677
   0.25014001  0.25199736  0.49991061
   0.24970670  0.72924024  0.99990171
   0.24964727  0.74703885  0.49991157
   0.74997122  0.25237839  0.00000856
   0.75000609  0.25088016  0.49999672
   0.74981308  0.74747751  0.00004440
   0.74975627  0.74851708  0.50004657
   0.24989396  0.99952331  0.50001081
   0.24994886  0.49971208  0.99985044
   0.24988901  0.49944140  0.49982430
   0.74990425  0.99994063  0.00008459
   0.74985100  0.99970606  0.50007113
   0.74992145  0.49991648  0.99992185
   0.74986919  0.49965552  0.49988369
   0.25000501  0.24374363  0.24400364
   0.25012730  0.24380213  0.75586424
   0.24971707  0.75556121  0.24419546
   0.24983506  0.75549799  0.75571102
   0.74999024  0.24830972  0.24845100
   0.75003098  0.24829544  0.75155131
   0.74977694  0.75143961  0.24844076
   0.74980495  0.75142178  0.75164055
   0.00587355  0.99966085  0.24411196
   0.00597094  0.99963715  0.75590259
   0.00141306  0.49957648  0.24832485
   0.00149898  0.49956885  0.75133463
   0.49387056  0.99980782  0.24410497
   0.49388825  0.99980712  0.75597972
   0.49829018  0.49979201  0.24841943
   0.49849737  0.49979715  0.75143789
   0.00604880  0.24376777  0.99990545
   0.00166464  0.24795838  0.49994154
   0.00588712  0.75558211  0.99994862
   0.00116037  0.75100725  0.49996549
   0.49409818  0.24403785  0.00001530
   0.49849079  0.24811843  0.49995807
   0.49364940  0.75582898  0.00005414
   0.49820847  0.75120930  0.49996714
