  63  63   1   0
  0.9726449E+01  0.8493727E-09  0.8493727E-09  0.8493727E-09  0.5000000E-15
  1.000000000000000E-004
  CAR 
 unknown system                          
     17.02966344    -15.59596024  301      5.83159782      1.00000000
    -15.596  0.0000E+00  0.0000E+00  0.0000E+00  0.0000E+00
    -15.487  0.0000E+00  0.0000E+00  0.0000E+00  0.0000E+00
    -15.378  0.0000E+00  0.0000E+00  0.0000E+00  0.0000E+00
    -15.270  0.0000E+00  0.0000E+00  0.0000E+00  0.0000E+00
    -15.161  0.0000E+00  0.0000E+00  0.0000E+00  0.0000E+00
    -15.052  0.0000E+00  0.0000E+00  0.0000E+00  0.0000E+00
    -14.943  0.0000E+00  0.0000E+00  0.0000E+00  0.0000E+00
    -14.835  0.0000E+00  0.0000E+00  0.0000E+00  0.0000E+00
    -14.726  0.0000E+00  0.0000E+00  0.0000E+00  0.0000E+00
    -14.617  0.9160E-13  0.9160E-13  0.9961E-14  0.9961E-14
    -14.508  0.2051E-08  0.2051E-08  0.2231E-09  0.2231E-09
    -14.400  0.4606E-05  0.4606E-05  0.5012E-06  0.5012E-06
    -14.291  0.1083E-02  0.1083E-02  0.1183E-03  0.1183E-03
    -14.182  0.2903E-01  0.2903E-01  0.3275E-02  0.3275E-02
    -14.073  0.1008E+00  0.1008E+00  0.1424E-01  0.1424E-01
    -13.965  0.5071E-01  0.5071E-01  0.1975E-01  0.1975E-01
    -13.856  0.4461E-01  0.4461E-01  0.2460E-01  0.2460E-01
    -13.747  0.2323E+00  0.2323E+00  0.4987E-01  0.4987E-01
    -13.638  0.2336E+00  0.2336E+00  0.7528E-01  0.7528E-01
    -13.530  0.1244E+00  0.1244E+00  0.8881E-01  0.8881E-01
    -13.421  0.2842E+00  0.2842E+00  0.1197E+00  0.1197E+00
    -13.312  0.2542E+00  0.2542E+00  0.1474E+00  0.1474E+00
    -13.203  0.3985E+00  0.3985E+00  0.1907E+00  0.1907E+00
    -13.095  0.6178E+00  0.6178E+00  0.2579E+00  0.2579E+00
    -12.986  0.9192E+00  0.9192E+00  0.3579E+00  0.3579E+00
    -12.877  0.8783E+00  0.8783E+00  0.4534E+00  0.4534E+00
    -12.768  0.1056E+01  0.1056E+01  0.5682E+00  0.5682E+00
    -12.660  0.4437E+00  0.4437E+00  0.6165E+00  0.6165E+00
    -12.551  0.3217E-01  0.3217E-01  0.6200E+00  0.6200E+00
    -12.442  0.3063E-03  0.3063E-03  0.6200E+00  0.6200E+00
    -12.333  0.3287E-06  0.3287E-06  0.6200E+00  0.6200E+00
    -12.225  0.3679E-10  0.3679E-10  0.6200E+00  0.6200E+00
    -12.116  0.4032E-15  0.4032E-15  0.6200E+00  0.6200E+00
    -12.007  0.0000E+00  0.0000E+00  0.6200E+00  0.6200E+00
    -11.898  0.0000E+00  0.0000E+00  0.6200E+00  0.6200E+00
    -11.790  0.0000E+00  0.0000E+00  0.6200E+00  0.6200E+00
    -11.681  0.0000E+00  0.0000E+00  0.6200E+00  0.6200E+00
    -11.572  0.0000E+00  0.0000E+00  0.6200E+00  0.6200E+00
    -11.463  0.0000E+00  0.0000E+00  0.6200E+00  0.6200E+00
    -11.355  0.0000E+00  0.0000E+00  0.6200E+00  0.6200E+00
    -11.246  0.0000E+00  0.0000E+00  0.6200E+00  0.6200E+00
    -11.137  0.0000E+00  0.0000E+00  0.6200E+00  0.6200E+00
    -11.028  0.0000E+00  0.0000E+00  0.6200E+00  0.6200E+00
    -10.920  0.0000E+00  0.0000E+00  0.6200E+00  0.6200E+00
    -10.811  0.0000E+00  0.0000E+00  0.6200E+00  0.6200E+00
    -10.702  0.0000E+00  0.0000E+00  0.6200E+00  0.6200E+00
    -10.593  0.0000E+00  0.0000E+00  0.6200E+00  0.6200E+00
    -10.485  0.0000E+00  0.0000E+00  0.6200E+00  0.6200E+00
    -10.376  0.0000E+00  0.0000E+00  0.6200E+00  0.6200E+00
    -10.267  0.0000E+00  0.0000E+00  0.6200E+00  0.6200E+00
    -10.158  0.0000E+00  0.0000E+00  0.6200E+00  0.6200E+00
    -10.050  0.0000E+00  0.0000E+00  0.6200E+00  0.6200E+00
     -9.941  0.0000E+00  0.0000E+00  0.6200E+00  0.6200E+00
     -9.832  0.0000E+00  0.0000E+00  0.6200E+00  0.6200E+00
     -9.723  0.0000E+00  0.0000E+00  0.6200E+00  0.6200E+00
     -9.615  0.0000E+00  0.0000E+00  0.6200E+00  0.6200E+00
     -9.506  0.0000E+00  0.0000E+00  0.6200E+00  0.6200E+00
     -9.397  0.0000E+00  0.0000E+00  0.6200E+00  0.6200E+00
     -9.288  0.0000E+00  0.0000E+00  0.6200E+00  0.6200E+00
     -9.180  0.0000E+00  0.0000E+00  0.6200E+00  0.6200E+00
     -9.071  0.0000E+00  0.0000E+00  0.6200E+00  0.6200E+00
     -8.962  0.0000E+00  0.0000E+00  0.6200E+00  0.6200E+00
     -8.853  0.0000E+00  0.0000E+00  0.6200E+00  0.6200E+00
     -8.745  0.0000E+00  0.0000E+00  0.6200E+00  0.6200E+00
     -8.636  0.0000E+00  0.0000E+00  0.6200E+00  0.6200E+00
     -8.527  0.0000E+00  0.0000E+00  0.6200E+00  0.6200E+00
     -8.418  0.0000E+00  0.0000E+00  0.6200E+00  0.6200E+00
     -8.310  0.0000E+00  0.0000E+00  0.6200E+00  0.6200E+00
     -8.201  0.0000E+00  0.0000E+00  0.6200E+00  0.6200E+00
     -8.092  0.0000E+00  0.0000E+00  0.6200E+00  0.6200E+00
     -7.983  0.0000E+00  0.0000E+00  0.6200E+00  0.6200E+00
     -7.875  0.0000E+00  0.0000E+00  0.6200E+00  0.6200E+00
     -7.766  0.0000E+00  0.0000E+00  0.6200E+00  0.6200E+00
     -7.657  0.0000E+00  0.0000E+00  0.6200E+00  0.6200E+00
     -7.548  0.0000E+00  0.0000E+00  0.6200E+00  0.6200E+00
     -7.440  0.0000E+00  0.0000E+00  0.6200E+00  0.6200E+00
     -7.331  0.0000E+00  0.0000E+00  0.6200E+00  0.6200E+00
     -7.222  0.0000E+00  0.0000E+00  0.6200E+00  0.6200E+00
     -7.113  0.0000E+00  0.0000E+00  0.6200E+00  0.6200E+00
     -7.005  0.0000E+00  0.0000E+00  0.6200E+00  0.6200E+00
     -6.896  0.0000E+00  0.0000E+00  0.6200E+00  0.6200E+00
     -6.787  0.0000E+00  0.0000E+00  0.6200E+00  0.6200E+00
     -6.678  0.0000E+00  0.0000E+00  0.6200E+00  0.6200E+00
     -6.570  0.0000E+00  0.0000E+00  0.6200E+00  0.6200E+00
     -6.461  0.0000E+00  0.0000E+00  0.6200E+00  0.6200E+00
     -6.352  0.0000E+00  0.0000E+00  0.6200E+00  0.6200E+00
     -6.243  0.0000E+00  0.0000E+00  0.6200E+00  0.6200E+00
     -6.135  0.0000E+00  0.0000E+00  0.6200E+00  0.6200E+00
     -6.026  0.0000E+00  0.0000E+00  0.6200E+00  0.6200E+00
     -5.917  0.0000E+00  0.0000E+00  0.6200E+00  0.6200E+00
     -5.808  0.0000E+00  0.0000E+00  0.6200E+00  0.6200E+00
     -5.700  0.0000E+00  0.0000E+00  0.6200E+00  0.6200E+00
     -5.591  0.0000E+00  0.0000E+00  0.6200E+00  0.6200E+00
     -5.482  0.0000E+00  0.0000E+00  0.6200E+00  0.6200E+00
     -5.373  0.0000E+00  0.0000E+00  0.6200E+00  0.6200E+00
     -5.265  0.0000E+00  0.0000E+00  0.6200E+00  0.6200E+00
     -5.156  0.0000E+00  0.0000E+00  0.6200E+00  0.6200E+00
     -5.047  0.0000E+00  0.0000E+00  0.6200E+00  0.6200E+00
     -4.938  0.0000E+00  0.0000E+00  0.6200E+00  0.6200E+00
     -4.830  0.0000E+00  0.0000E+00  0.6200E+00  0.6200E+00
     -4.721  0.0000E+00  0.0000E+00  0.6200E+00  0.6200E+00
     -4.612  0.0000E+00  0.0000E+00  0.6200E+00  0.6200E+00
     -4.503  0.0000E+00  0.0000E+00  0.6200E+00  0.6200E+00
     -4.394  0.0000E+00  0.0000E+00  0.6200E+00  0.6200E+00
     -4.286  0.0000E+00  0.0000E+00  0.6200E+00  0.6200E+00
     -4.177  0.0000E+00  0.0000E+00  0.6200E+00  0.6200E+00
     -4.068  0.0000E+00  0.0000E+00  0.6200E+00  0.6200E+00
     -3.959  0.0000E+00  0.0000E+00  0.6200E+00  0.6200E+00
     -3.851  0.0000E+00  0.0000E+00  0.6200E+00  0.6200E+00
     -3.742  0.0000E+00  0.0000E+00  0.6200E+00  0.6200E+00
     -3.633  0.0000E+00  0.0000E+00  0.6200E+00  0.6200E+00
     -3.524  0.0000E+00  0.0000E+00  0.6200E+00  0.6200E+00
     -3.416  0.0000E+00  0.0000E+00  0.6200E+00  0.6200E+00
     -3.307  0.0000E+00  0.0000E+00  0.6200E+00  0.6200E+00
     -3.198  0.0000E+00  0.0000E+00  0.6200E+00  0.6200E+00
     -3.089  0.0000E+00  0.0000E+00  0.6200E+00  0.6200E+00
     -2.981  0.0000E+00  0.0000E+00  0.6200E+00  0.6200E+00
     -2.872  0.0000E+00  0.0000E+00  0.6200E+00  0.6200E+00
     -2.763  0.0000E+00  0.0000E+00  0.6200E+00  0.6200E+00
     -2.654  0.0000E+00  0.0000E+00  0.6200E+00  0.6200E+00
     -2.546  0.0000E+00  0.0000E+00  0.6200E+00  0.6200E+00
     -2.437  0.0000E+00  0.0000E+00  0.6200E+00  0.6200E+00
     -2.328  0.0000E+00  0.0000E+00  0.6200E+00  0.6200E+00
     -2.219  0.0000E+00  0.0000E+00  0.6200E+00  0.6200E+00
     -2.111  0.1021E-16  0.1021E-16  0.6200E+00  0.6200E+00
     -2.002  0.1370E-11  0.1370E-11  0.6200E+00  0.6200E+00
     -1.893  0.1787E-07  0.1787E-07  0.6200E+00  0.6200E+00
     -1.784  0.2461E-04  0.2461E-04  0.6200E+00  0.6200E+00
     -1.676  0.3947E-02  0.3947E-02  0.6204E+00  0.6204E+00
     -1.567  0.8541E-01  0.8541E-01  0.6297E+00  0.6297E+00
     -1.458  0.2890E+00  0.2890E+00  0.6611E+00  0.6611E+00
     -1.349  0.1843E+00  0.1843E+00  0.6812E+00  0.6812E+00
     -1.241  0.1170E+00  0.1170E+00  0.6939E+00  0.6939E+00
     -1.132  0.1495E+00  0.1495E+00  0.7102E+00  0.7102E+00
     -1.023  0.3777E+00  0.3777E+00  0.7512E+00  0.7512E+00
     -0.914  0.7151E+00  0.7151E+00  0.8290E+00  0.8290E+00
     -0.806  0.7712E+00  0.7712E+00  0.9129E+00  0.9129E+00
     -0.697  0.6162E+00  0.6162E+00  0.9799E+00  0.9799E+00
     -0.588  0.6151E+00  0.6151E+00  0.1047E+01  0.1047E+01
     -0.479  0.4799E+00  0.4799E+00  0.1099E+01  0.1099E+01
     -0.371  0.2151E+00  0.2151E+00  0.1122E+01  0.1122E+01
     -0.262  0.2289E+00  0.2289E+00  0.1147E+01  0.1147E+01
     -0.153  0.2393E+00  0.2393E+00  0.1173E+01  0.1173E+01
     -0.044  0.5881E-01  0.5881E-01  0.1180E+01  0.1180E+01
      0.064  0.2855E-02  0.2855E-02  0.1180E+01  0.1180E+01
      0.173  0.1166E-01  0.1166E-01  0.1181E+01  0.1181E+01
      0.282  0.2202E+00  0.2202E+00  0.1205E+01  0.1205E+01
      0.391  0.7276E+00  0.7276E+00  0.1284E+01  0.1284E+01
      0.499  0.6643E+00  0.6643E+00  0.1357E+01  0.1357E+01
      0.608  0.2590E+00  0.2590E+00  0.1385E+01  0.1385E+01
      0.717  0.2134E+00  0.2134E+00  0.1408E+01  0.1408E+01
      0.826  0.1037E+00  0.1037E+00  0.1419E+01  0.1419E+01
      0.934  0.3495E-01  0.3495E-01  0.1423E+01  0.1423E+01
      1.043  0.3539E+00  0.3539E+00  0.1462E+01  0.1462E+01
      1.152  0.7305E+00  0.7305E+00  0.1541E+01  0.1541E+01
      1.261  0.4436E+00  0.4436E+00  0.1589E+01  0.1589E+01
      1.369  0.2675E+00  0.2675E+00  0.1618E+01  0.1618E+01
      1.478  0.6345E+00  0.6345E+00  0.1687E+01  0.1687E+01
      1.587  0.8019E+00  0.8019E+00  0.1775E+01  0.1775E+01
      1.696  0.7828E+00  0.7828E+00  0.1860E+01  0.1860E+01
      1.804  0.8508E+00  0.8508E+00  0.1952E+01  0.1952E+01
      1.913  0.1175E+01  0.1175E+01  0.2080E+01  0.2080E+01
      2.022  0.9644E+00  0.9644E+00  0.2185E+01  0.2185E+01
      2.131  0.4446E+00  0.4446E+00  0.2233E+01  0.2233E+01
      2.239  0.5713E+00  0.5713E+00  0.2295E+01  0.2295E+01
      2.348  0.8251E+00  0.8251E+00  0.2385E+01  0.2385E+01
      2.457  0.4499E+00  0.4499E+00  0.2434E+01  0.2434E+01
      2.566  0.1060E+00  0.1060E+00  0.2445E+01  0.2445E+01
      2.674  0.1984E+00  0.1984E+00  0.2467E+01  0.2467E+01
      2.783  0.1107E+00  0.1107E+00  0.2479E+01  0.2479E+01
      2.892  0.8399E-02  0.8399E-02  0.2480E+01  0.2480E+01
      3.001  0.7560E-04  0.7560E-04  0.2480E+01  0.2480E+01
      3.109  0.7292E-07  0.7292E-07  0.2480E+01  0.2480E+01
      3.218  0.7136E-11  0.7136E-11  0.2480E+01  0.2480E+01
      3.327  0.8167E-16  0.8167E-16  0.2480E+01  0.2480E+01
      3.436  0.0000E+00  0.0000E+00  0.2480E+01  0.2480E+01
      3.544  0.0000E+00  0.0000E+00  0.2480E+01  0.2480E+01
      3.653  0.0000E+00  0.0000E+00  0.2480E+01  0.2480E+01
      3.762  0.0000E+00  0.0000E+00  0.2480E+01  0.2480E+01
      3.871  0.0000E+00  0.0000E+00  0.2480E+01  0.2480E+01
      3.979  0.0000E+00  0.0000E+00  0.2480E+01  0.2480E+01
      4.088  0.0000E+00  0.0000E+00  0.2480E+01  0.2480E+01
      4.197  0.0000E+00  0.0000E+00  0.2480E+01  0.2480E+01
      4.306  0.0000E+00  0.0000E+00  0.2480E+01  0.2480E+01
      4.414  0.0000E+00  0.0000E+00  0.2480E+01  0.2480E+01
      4.523  0.0000E+00  0.0000E+00  0.2480E+01  0.2480E+01
      4.632  0.0000E+00  0.0000E+00  0.2480E+01  0.2480E+01
      4.741  0.5104E-16  0.5104E-16  0.2480E+01  0.2480E+01
      4.849  0.5060E-11  0.5060E-11  0.2480E+01  0.2480E+01
      4.958  0.4784E-07  0.4784E-07  0.2480E+01  0.2480E+01
      5.067  0.4594E-04  0.4594E-04  0.2480E+01  0.2480E+01
      5.176  0.4741E-02  0.4741E-02  0.2481E+01  0.2481E+01
      5.284  0.5827E-01  0.5827E-01  0.2487E+01  0.2487E+01
      5.393  0.9721E-01  0.9721E-01  0.2497E+01  0.2497E+01
      5.502  0.2295E-01  0.2295E-01  0.2500E+01  0.2500E+01
      5.611  0.6925E-03  0.6925E-03  0.2500E+01  0.2500E+01
      5.719  0.2355E-05  0.2355E-05  0.2500E+01  0.2500E+01
      5.828  0.8340E-09  0.8340E-09  0.2500E+01  0.2500E+01
      5.937  0.2952E-13  0.2952E-13  0.2500E+01  0.2500E+01
      6.046  0.0000E+00  0.0000E+00  0.2500E+01  0.2500E+01
      6.154  0.0000E+00  0.0000E+00  0.2500E+01  0.2500E+01
      6.263  0.0000E+00  0.0000E+00  0.2500E+01  0.2500E+01
      6.372  0.0000E+00  0.0000E+00  0.2500E+01  0.2500E+01
      6.481  0.0000E+00  0.0000E+00  0.2500E+01  0.2500E+01
      6.589  0.0000E+00  0.0000E+00  0.2500E+01  0.2500E+01
      6.698  0.0000E+00  0.0000E+00  0.2500E+01  0.2500E+01
      6.807  0.0000E+00  0.0000E+00  0.2500E+01  0.2500E+01
      6.916  0.0000E+00  0.0000E+00  0.2500E+01  0.2500E+01
      7.024  0.0000E+00  0.0000E+00  0.2500E+01  0.2500E+01
      7.133  0.0000E+00  0.0000E+00  0.2500E+01  0.2500E+01
      7.242  0.0000E+00  0.0000E+00  0.2500E+01  0.2500E+01
      7.351  0.0000E+00  0.0000E+00  0.2500E+01  0.2500E+01
      7.459  0.0000E+00  0.0000E+00  0.2500E+01  0.2500E+01
      7.568  0.0000E+00  0.0000E+00  0.2500E+01  0.2500E+01
      7.677  0.5339E-14  0.5339E-14  0.2500E+01  0.2500E+01
      7.786  0.2124E-09  0.2124E-09  0.2500E+01  0.2500E+01
      7.894  0.8411E-06  0.8411E-06  0.2500E+01  0.2500E+01
      8.003  0.3441E-03  0.3441E-03  0.2500E+01  0.2500E+01
      8.112  0.1563E-01  0.1563E-01  0.2502E+01  0.2502E+01
      8.221  0.8894E-01  0.8894E-01  0.2511E+01  0.2511E+01
      8.329  0.7106E-01  0.7106E-01  0.2519E+01  0.2519E+01
      8.438  0.7825E-02  0.7825E-02  0.2520E+01  0.2520E+01
      8.547  0.1046E-03  0.1046E-03  0.2520E+01  0.2520E+01
      8.656  0.1524E-06  0.1524E-06  0.2520E+01  0.2520E+01
      8.765  0.1211E-05  0.1211E-05  0.2520E+01  0.2520E+01
      8.873  0.5481E-03  0.5481E-03  0.2520E+01  0.2520E+01
      8.982  0.2746E-01  0.2746E-01  0.2523E+01  0.2523E+01
      9.091  0.1715E+00  0.1715E+00  0.2542E+01  0.2542E+01
      9.200  0.1499E+00  0.1499E+00  0.2558E+01  0.2558E+01
      9.308  0.1820E-01  0.1820E-01  0.2560E+01  0.2560E+01
      9.417  0.4590E-02  0.4590E-02  0.2560E+01  0.2560E+01
      9.526  0.5600E-01  0.5600E-01  0.2567E+01  0.2567E+01
      9.635  0.9831E-01  0.9831E-01  0.2577E+01  0.2577E+01
      9.743  0.2453E-01  0.2453E-01  0.2580E+01  0.2580E+01
      9.852  0.7643E-02  0.7643E-02  0.2581E+01  0.2581E+01
      9.961  0.6765E-01  0.6765E-01  0.2588E+01  0.2588E+01
     10.070  0.9518E-01  0.9518E-01  0.2598E+01  0.2598E+01
     10.178  0.9414E-01  0.9414E-01  0.2609E+01  0.2609E+01
     10.287  0.2336E+00  0.2336E+00  0.2634E+01  0.2634E+01
     10.396  0.1794E+00  0.1794E+00  0.2654E+01  0.2654E+01
     10.505  0.5549E-01  0.5549E-01  0.2660E+01  0.2660E+01
     10.613  0.2506E-01  0.2506E-01  0.2662E+01  0.2662E+01
     10.722  0.1590E+00  0.1590E+00  0.2680E+01  0.2680E+01
     10.831  0.1632E+00  0.1632E+00  0.2697E+01  0.2697E+01
     10.940  0.2553E-01  0.2553E-01  0.2700E+01  0.2700E+01
     11.048  0.5898E-01  0.5898E-01  0.2707E+01  0.2707E+01
     11.157  0.2232E+00  0.2232E+00  0.2731E+01  0.2731E+01
     11.266  0.1956E+00  0.1956E+00  0.2752E+01  0.2752E+01
     11.375  0.6867E-01  0.6867E-01  0.2760E+01  0.2760E+01
     11.483  0.4278E-01  0.4278E-01  0.2764E+01  0.2764E+01
     11.592  0.1150E+00  0.1150E+00  0.2777E+01  0.2777E+01
     11.701  0.1699E+00  0.1699E+00  0.2795E+01  0.2795E+01
     11.810  0.2081E+00  0.2081E+00  0.2818E+01  0.2818E+01
     11.918  0.2382E+00  0.2382E+00  0.2844E+01  0.2844E+01
     12.027  0.3915E+00  0.3915E+00  0.2886E+01  0.2886E+01
     12.136  0.2416E+00  0.2416E+00  0.2913E+01  0.2913E+01
     12.245  0.3591E+00  0.3591E+00  0.2952E+01  0.2952E+01
     12.353  0.4288E+00  0.4288E+00  0.2998E+01  0.2998E+01
     12.462  0.1831E+00  0.1831E+00  0.3018E+01  0.3018E+01
     12.571  0.8626E-01  0.8626E-01  0.3028E+01  0.3028E+01
     12.680  0.2079E+00  0.2079E+00  0.3050E+01  0.3050E+01
     12.788  0.1376E+00  0.1376E+00  0.3065E+01  0.3065E+01
     12.897  0.1312E+00  0.1312E+00  0.3079E+01  0.3079E+01
     13.006  0.2307E+00  0.2307E+00  0.3105E+01  0.3105E+01
     13.115  0.4406E+00  0.4406E+00  0.3152E+01  0.3152E+01
     13.223  0.5902E+00  0.5902E+00  0.3217E+01  0.3217E+01
     13.332  0.4547E+00  0.4547E+00  0.3266E+01  0.3266E+01
     13.441  0.1310E+00  0.1310E+00  0.3280E+01  0.3280E+01
     13.550  0.8306E-01  0.8306E-01  0.3289E+01  0.3289E+01
     13.658  0.8432E-01  0.8432E-01  0.3299E+01  0.3299E+01
     13.767  0.1299E-01  0.1299E-01  0.3300E+01  0.3300E+01
     13.876  0.3943E-03  0.3943E-03  0.3300E+01  0.3300E+01
     13.985  0.1518E-01  0.1518E-01  0.3302E+01  0.3302E+01
     14.093  0.2622E+00  0.2622E+00  0.3330E+01  0.3330E+01
     14.202  0.8517E+00  0.8517E+00  0.3423E+01  0.3423E+01
     14.311  0.5707E+00  0.5707E+00  0.3485E+01  0.3485E+01
     14.420  0.1966E+00  0.1966E+00  0.3506E+01  0.3506E+01
     14.528  0.2801E+00  0.2801E+00  0.3537E+01  0.3537E+01
     14.637  0.4523E+00  0.4523E+00  0.3586E+01  0.3586E+01
     14.746  0.5396E+00  0.5396E+00  0.3645E+01  0.3645E+01
     14.855  0.6540E+00  0.6540E+00  0.3716E+01  0.3716E+01
     14.963  0.7777E+00  0.7777E+00  0.3800E+01  0.3800E+01
     15.072  0.4770E+00  0.4770E+00  0.3852E+01  0.3852E+01
     15.181  0.8419E-01  0.8419E-01  0.3861E+01  0.3861E+01
     15.290  0.1567E+00  0.1567E+00  0.3878E+01  0.3878E+01
     15.398  0.2975E+00  0.2976E+00  0.3911E+01  0.3911E+01
     15.507  0.1979E+00  0.1984E+00  0.3932E+01  0.3932E+01
     15.616  0.2019E+00  0.2016E+00  0.3954E+01  0.3954E+01
     15.725  0.5158E-01  0.5121E-01  0.3960E+01  0.3960E+01
     15.833  0.1746E-02  0.1722E-02  0.3960E+01  0.3960E+01
     15.942  0.6769E-05  0.6627E-05  0.3960E+01  0.3960E+01
     16.051  0.2770E-08  0.2691E-08  0.3960E+01  0.3960E+01
     16.160  0.1147E-12  0.1105E-12  0.3960E+01  0.3960E+01
     16.268  0.0000E+00  0.0000E+00  0.3960E+01  0.3960E+01
     16.377  0.0000E+00  0.0000E+00  0.3960E+01  0.3960E+01
     16.486  0.0000E+00  0.0000E+00  0.3960E+01  0.3960E+01
     16.595  0.0000E+00  0.0000E+00  0.3960E+01  0.3960E+01
     16.703  0.0000E+00  0.0000E+00  0.3960E+01  0.3960E+01
     16.812  0.0000E+00  0.0000E+00  0.3960E+01  0.3960E+01
     16.921  0.0000E+00  0.0000E+00  0.3960E+01  0.3960E+01
     17.030  0.0000E+00  0.0000E+00  0.3960E+01  0.3960E+01
     17.02966344    -15.59596024  301      5.83159782      1.00000000
    -15.596  0.0000E+00  0.0000E+00  0.0000E+00  0.0000E+00  0.0000E+00  0.0000E+00
    -15.487  0.0000E+00  0.0000E+00  0.0000E+00  0.0000E+00  0.0000E+00  0.0000E+00
    -15.378  0.0000E+00  0.0000E+00  0.0000E+00  0.0000E+00  0.0000E+00  0.0000E+00
    -15.270  0.0000E+00  0.0000E+00  0.0000E+00  0.0000E+00  0.0000E+00  0.0000E+00
    -15.161  0.0000E+00  0.0000E+00  0.0000E+00  0.0000E+00  0.0000E+00  0.0000E+00
    -15.052  0.0000E+00  0.0000E+00  0.0000E+00  0.0000E+00  0.0000E+00  0.0000E+00
    -14.943  0.0000E+00  0.0000E+00  0.0000E+00  0.0000E+00  0.0000E+00  0.0000E+00
    -14.835  0.0000E+00  0.0000E+00  0.0000E+00  0.0000E+00  0.0000E+00  0.0000E+00
    -14.726  0.0000E+00  0.0000E+00  0.0000E+00  0.0000E+00  0.0000E+00  0.0000E+00
    -14.617  0.3518E-14  0.3518E-14  0.4857E-15  0.4857E-15  0.2810E-16  0.2810E-16
    -14.508  0.7879E-10  0.7879E-10  0.1088E-10  0.1088E-10  0.6293E-12  0.6293E-12
    -14.400  0.1769E-06  0.1769E-06  0.2443E-07  0.2443E-07  0.1413E-08  0.1413E-08
    -14.291  0.4161E-04  0.4161E-04  0.5746E-05  0.5746E-05  0.3324E-06  0.3324E-06
    -14.182  0.1115E-02  0.1115E-02  0.1539E-03  0.1539E-03  0.8905E-05  0.8905E-05
    -14.073  0.3872E-02  0.3872E-02  0.5346E-03  0.5346E-03  0.3093E-04  0.3093E-04
    -13.965  0.1937E-02  0.1937E-02  0.2766E-03  0.2766E-03  0.1614E-04  0.1614E-04
    -13.856  0.1332E-02  0.1332E-02  0.5270E-03  0.5270E-03  0.3767E-04  0.3767E-04
    -13.747  0.7102E-02  0.7102E-02  0.2607E-02  0.2607E-02  0.2179E-03  0.2179E-03
    -13.638  0.7661E-02  0.7661E-02  0.2150E-02  0.2150E-02  0.2429E-03  0.2429E-03
    -13.530  0.3090E-02  0.3090E-02  0.1605E-02  0.1605E-02  0.1487E-03  0.1487E-03
    -13.421  0.6200E-02  0.6200E-02  0.4360E-02  0.4360E-02  0.4285E-03  0.4285E-03
    -13.312  0.5919E-02  0.5919E-02  0.3583E-02  0.3583E-02  0.6340E-03  0.6340E-03
    -13.203  0.6465E-02  0.6465E-02  0.5817E-02  0.5817E-02  0.1484E-02  0.1484E-02
    -13.095  0.6329E-02  0.6329E-02  0.9775E-02  0.9775E-02  0.2167E-02  0.2167E-02
    -12.986  0.5267E-02  0.5267E-02  0.1429E-01  0.1429E-01  0.3396E-02  0.3396E-02
    -12.877  0.2825E-02  0.2825E-02  0.1194E-01  0.1194E-01  0.5058E-02  0.5058E-02
    -12.768  0.2792E-02  0.2792E-02  0.9920E-02  0.9920E-02  0.6406E-02  0.6406E-02
    -12.660  0.1111E-02  0.1111E-02  0.3524E-02  0.3524E-02  0.2252E-02  0.2252E-02
    -12.551  0.7122E-04  0.7122E-04  0.2517E-03  0.2517E-03  0.1430E-03  0.1430E-03
    -12.442  0.6116E-06  0.6116E-06  0.2480E-05  0.2480E-05  0.1278E-05  0.1278E-05
    -12.333  0.6172E-09  0.6172E-09  0.2770E-08  0.2770E-08  0.1346E-08  0.1346E-08
    -12.225  0.6703E-13  0.6703E-13  0.3210E-12  0.3210E-12  0.1510E-12  0.1510E-12
    -12.116  0.7139E-18  0.7139E-18  0.3733E-17  0.3733E-17  0.1689E-17  0.1689E-17
    -12.007  0.0000E+00  0.0000E+00  0.0000E+00  0.0000E+00  0.0000E+00  0.0000E+00
    -11.898  0.0000E+00  0.0000E+00  0.0000E+00  0.0000E+00  0.0000E+00  0.0000E+00
    -11.790  0.0000E+00  0.0000E+00  0.0000E+00  0.0000E+00  0.0000E+00  0.0000E+00
    -11.681  0.0000E+00  0.0000E+00  0.0000E+00  0.0000E+00  0.0000E+00  0.0000E+00
    -11.572  0.0000E+00  0.0000E+00  0.0000E+00  0.0000E+00  0.0000E+00  0.0000E+00
    -11.463  0.0000E+00  0.0000E+00  0.0000E+00  0.0000E+00  0.0000E+00  0.0000E+00
    -11.355  0.0000E+00  0.0000E+00  0.0000E+00  0.0000E+00  0.0000E+00  0.0000E+00
    -11.246  0.0000E+00  0.0000E+00  0.0000E+00  0.0000E+00  0.0000E+00  0.0000E+00
    -11.137  0.0000E+00  0.0000E+00  0.0000E+00  0.0000E+00  0.0000E+00  0.0000E+00
    -11.028  0.0000E+00  0.0000E+00  0.0000E+00  0.0000E+00  0.0000E+00  0.0000E+00
    -10.920  0.0000E+00  0.0000E+00  0.0000E+00  0.0000E+00  0.0000E+00  0.0000E+00
    -10.811  0.0000E+00  0.0000E+00  0.0000E+00  0.0000E+00  0.0000E+00  0.0000E+00
    -10.702  0.0000E+00  0.0000E+00  0.0000E+00  0.0000E+00  0.0000E+00  0.0000E+00
    -10.593  0.0000E+00  0.0000E+00  0.0000E+00  0.0000E+00  0.0000E+00  0.0000E+00
    -10.485  0.0000E+00  0.0000E+00  0.0000E+00  0.0000E+00  0.0000E+00  0.0000E+00
    -10.376  0.0000E+00  0.0000E+00  0.0000E+00  0.0000E+00  0.0000E+00  0.0000E+00
    -10.267  0.0000E+00  0.0000E+00  0.0000E+00  0.0000E+00  0.0000E+00  0.0000E+00
    -10.158  0.0000E+00  0.0000E+00  0.0000E+00  0.0000E+00  0.0000E+00  0.0000E+00
    -10.050  0.0000E+00  0.0000E+00  0.0000E+00  0.0000E+00  0.0000E+00  0.0000E+00
     -9.941  0.0000E+00  0.0000E+00  0.0000E+00  0.0000E+00  0.0000E+00  0.0000E+00
     -9.832  0.0000E+00  0.0000E+00  0.0000E+00  0.0000E+00  0.0000E+00  0.0000E+00
     -9.723  0.0000E+00  0.0000E+00  0.0000E+00  0.0000E+00  0.0000E+00  0.0000E+00
     -9.615  0.0000E+00  0.0000E+00  0.0000E+00  0.0000E+00  0.0000E+00  0.0000E+00
     -9.506  0.0000E+00  0.0000E+00  0.0000E+00  0.0000E+00  0.0000E+00  0.0000E+00
     -9.397  0.0000E+00  0.0000E+00  0.0000E+00  0.0000E+00  0.0000E+00  0.0000E+00
     -9.288  0.0000E+00  0.0000E+00  0.0000E+00  0.0000E+00  0.0000E+00  0.0000E+00
     -9.180  0.0000E+00  0.0000E+00  0.0000E+00  0.0000E+00  0.0000E+00  0.0000E+00
     -9.071  0.0000E+00  0.0000E+00  0.0000E+00  0.0000E+00  0.0000E+00  0.0000E+00
     -8.962  0.0000E+00  0.0000E+00  0.0000E+00  0.0000E+00  0.0000E+00  0.0000E+00
     -8.853  0.0000E+00  0.0000E+00  0.0000E+00  0.0000E+00  0.0000E+00  0.0000E+00
     -8.745  0.0000E+00  0.0000E+00  0.0000E+00  0.0000E+00  0.0000E+00  0.0000E+00
     -8.636  0.0000E+00  0.0000E+00  0.0000E+00  0.0000E+00  0.0000E+00  0.0000E+00
     -8.527  0.0000E+00  0.0000E+00  0.0000E+00  0.0000E+00  0.0000E+00  0.0000E+00
     -8.418  0.0000E+00  0.0000E+00  0.0000E+00  0.0000E+00  0.0000E+00  0.0000E+00
     -8.310  0.0000E+00  0.0000E+00  0.0000E+00  0.0000E+00  0.0000E+00  0.0000E+00
     -8.201  0.0000E+00  0.0000E+00  0.0000E+00  0.0000E+00  0.0000E+00  0.0000E+00
     -8.092  0.0000E+00  0.0000E+00  0.0000E+00  0.0000E+00  0.0000E+00  0.0000E+00
     -7.983  0.0000E+00  0.0000E+00  0.0000E+00  0.0000E+00  0.0000E+00  0.0000E+00
     -7.875  0.0000E+00  0.0000E+00  0.0000E+00  0.0000E+00  0.0000E+00  0.0000E+00
     -7.766  0.0000E+00  0.0000E+00  0.0000E+00  0.0000E+00  0.0000E+00  0.0000E+00
     -7.657  0.0000E+00  0.0000E+00  0.0000E+00  0.0000E+00  0.0000E+00  0.0000E+00
     -7.548  0.0000E+00  0.0000E+00  0.0000E+00  0.0000E+00  0.0000E+00  0.0000E+00
     -7.440  0.0000E+00  0.0000E+00  0.0000E+00  0.0000E+00  0.0000E+00  0.0000E+00
     -7.331  0.0000E+00  0.0000E+00  0.0000E+00  0.0000E+00  0.0000E+00  0.0000E+00
     -7.222  0.0000E+00  0.0000E+00  0.0000E+00  0.0000E+00  0.0000E+00  0.0000E+00
     -7.113  0.0000E+00  0.0000E+00  0.0000E+00  0.0000E+00  0.0000E+00  0.0000E+00
     -7.005  0.0000E+00  0.0000E+00  0.0000E+00  0.0000E+00  0.0000E+00  0.0000E+00
     -6.896  0.0000E+00  0.0000E+00  0.0000E+00  0.0000E+00  0.0000E+00  0.0000E+00
     -6.787  0.0000E+00  0.0000E+00  0.0000E+00  0.0000E+00  0.0000E+00  0.0000E+00
     -6.678  0.0000E+00  0.0000E+00  0.0000E+00  0.0000E+00  0.0000E+00  0.0000E+00
     -6.570  0.0000E+00  0.0000E+00  0.0000E+00  0.0000E+00  0.0000E+00  0.0000E+00
     -6.461  0.0000E+00  0.0000E+00  0.0000E+00  0.0000E+00  0.0000E+00  0.0000E+00
     -6.352  0.0000E+00  0.0000E+00  0.0000E+00  0.0000E+00  0.0000E+00  0.0000E+00
     -6.243  0.0000E+00  0.0000E+00  0.0000E+00  0.0000E+00  0.0000E+00  0.0000E+00
     -6.135  0.0000E+00  0.0000E+00  0.0000E+00  0.0000E+00  0.0000E+00  0.0000E+00
     -6.026  0.0000E+00  0.0000E+00  0.0000E+00  0.0000E+00  0.0000E+00  0.0000E+00
     -5.917  0.0000E+00  0.0000E+00  0.0000E+00  0.0000E+00  0.0000E+00  0.0000E+00
     -5.808  0.0000E+00  0.0000E+00  0.0000E+00  0.0000E+00  0.0000E+00  0.0000E+00
     -5.700  0.0000E+00  0.0000E+00  0.0000E+00  0.0000E+00  0.0000E+00  0.0000E+00
     -5.591  0.0000E+00  0.0000E+00  0.0000E+00  0.0000E+00  0.0000E+00  0.0000E+00
     -5.482  0.0000E+00  0.0000E+00  0.0000E+00  0.0000E+00  0.0000E+00  0.0000E+00
     -5.373  0.0000E+00  0.0000E+00  0.0000E+00  0.0000E+00  0.0000E+00  0.0000E+00
     -5.265  0.0000E+00  0.0000E+00  0.0000E+00  0.0000E+00  0.0000E+00  0.0000E+00
     -5.156  0.0000E+00  0.0000E+00  0.0000E+00  0.0000E+00  0.0000E+00  0.0000E+00
     -5.047  0.0000E+00  0.0000E+00  0.0000E+00  0.0000E+00  0.0000E+00  0.0000E+00
     -4.938  0.0000E+00  0.0000E+00  0.0000E+00  0.0000E+00  0.0000E+00  0.0000E+00
     -4.830  0.0000E+00  0.0000E+00  0.0000E+00  0.0000E+00  0.0000E+00  0.0000E+00
     -4.721  0.0000E+00  0.0000E+00  0.0000E+00  0.0000E+00  0.0000E+00  0.0000E+00
     -4.612  0.0000E+00  0.0000E+00  0.0000E+00  0.0000E+00  0.0000E+00  0.0000E+00
     -4.503  0.0000E+00  0.0000E+00  0.0000E+00  0.0000E+00  0.0000E+00  0.0000E+00
     -4.394  0.0000E+00  0.0000E+00  0.0000E+00  0.0000E+00  0.0000E+00  0.0000E+00
     -4.286  0.0000E+00  0.0000E+00  0.0000E+00  0.0000E+00  0.0000E+00  0.0000E+00
     -4.177  0.0000E+00  0.0000E+00  0.0000E+00  0.0000E+00  0.0000E+00  0.0000E+00
     -4.068  0.0000E+00  0.0000E+00  0.0000E+00  0.0000E+00  0.0000E+00  0.0000E+00
     -3.959  0.0000E+00  0.0000E+00  0.0000E+00  0.0000E+00  0.0000E+00  0.0000E+00
     -3.851  0.0000E+00  0.0000E+00  0.0000E+00  0.0000E+00  0.0000E+00  0.0000E+00
     -3.742  0.0000E+00  0.0000E+00  0.0000E+00  0.0000E+00  0.0000E+00  0.0000E+00
     -3.633  0.0000E+00  0.0000E+00  0.0000E+00  0.0000E+00  0.0000E+00  0.0000E+00
     -3.524  0.0000E+00  0.0000E+00  0.0000E+00  0.0000E+00  0.0000E+00  0.0000E+00
     -3.416  0.0000E+00  0.0000E+00  0.0000E+00  0.0000E+00  0.0000E+00  0.0000E+00
     -3.307  0.0000E+00  0.0000E+00  0.0000E+00  0.0000E+00  0.0000E+00  0.0000E+00
     -3.198  0.0000E+00  0.0000E+00  0.0000E+00  0.0000E+00  0.0000E+00  0.0000E+00
     -3.089  0.0000E+00  0.0000E+00  0.0000E+00  0.0000E+00  0.0000E+00  0.0000E+00
     -2.981  0.0000E+00  0.0000E+00  0.0000E+00  0.0000E+00  0.0000E+00  0.0000E+00
     -2.872  0.0000E+00  0.0000E+00  0.0000E+00  0.0000E+00  0.0000E+00  0.0000E+00
     -2.763  0.0000E+00  0.0000E+00  0.0000E+00  0.0000E+00  0.0000E+00  0.0000E+00
     -2.654  0.0000E+00  0.0000E+00  0.0000E+00  0.0000E+00  0.0000E+00  0.0000E+00
     -2.546  0.0000E+00  0.0000E+00  0.0000E+00  0.0000E+00  0.0000E+00  0.0000E+00
     -2.437  0.0000E+00  0.0000E+00  0.0000E+00  0.0000E+00  0.0000E+00  0.0000E+00
     -2.328  0.0000E+00  0.0000E+00  0.0000E+00  0.0000E+00  0.0000E+00  0.0000E+00
     -2.219  0.0000E+00  0.0000E+00  0.0000E+00  0.0000E+00  0.0000E+00  0.0000E+00
     -2.111  0.5347E-18  0.5347E-18  0.8668E-19  0.8668E-19  0.1638E-18  0.1638E-18
     -2.002  0.7374E-13  0.7374E-13  0.1197E-13  0.1197E-13  0.2180E-13  0.2180E-13
     -1.893  0.1003E-08  0.1003E-08  0.1629E-09  0.1629E-09  0.2808E-09  0.2808E-09
     -1.784  0.1512E-05  0.1512E-05  0.2465E-06  0.2465E-06  0.3749E-06  0.3749E-06
     -1.676  0.2841E-03  0.2841E-03  0.4655E-04  0.4655E-04  0.5640E-04  0.5640E-04
     -1.567  0.7476E-02  0.7476E-02  0.1232E-02  0.1232E-02  0.1101E-02  0.1101E-02
     -1.458  0.2998E-01  0.2998E-01  0.4949E-02  0.4949E-02  0.3308E-02  0.3308E-02
     -1.349  0.2278E-01  0.2278E-01  0.3460E-02  0.3460E-02  0.1862E-02  0.1862E-02
     -1.241  0.1939E-01  0.1939E-01  0.2218E-02  0.2218E-02  0.1017E-02  0.1017E-02
     -1.132  0.1835E-01  0.1835E-01  0.7753E-02  0.7753E-02  0.1141E-02  0.1141E-02
     -1.023  0.2529E-01  0.2529E-01  0.2409E-01  0.2409E-01  0.2615E-02  0.2615E-02
     -0.914  0.4721E-01  0.4721E-01  0.3105E-01  0.3105E-01  0.6882E-02  0.6882E-02
     -0.806  0.5907E-01  0.5907E-01  0.2374E-01  0.2374E-01  0.9121E-02  0.9121E-02
     -0.697  0.3718E-01  0.3718E-01  0.2506E-01  0.2506E-01  0.6147E-02  0.6147E-02