   63   63   50    2
  0.9726449E+01  0.8493727E-09  0.8493727E-09  0.8493727E-09  0.5000000E-15
  1.000000000000000E-004
  CAR 
 unknown system                          
    250      4    198
 
  0.2500000E+00  0.2500000E+00  0.2500000E+00  0.2500000E+00
    1      -14.112935    -14.112935   1.000000   1.000000
    2      -13.769083    -13.769083   1.000000   1.000000
    3      -13.768140    -13.768140   1.000000   1.000000
    4      -13.700598    -13.700598   1.000000   1.000000
    5      -13.470556    -13.470556   1.000000   1.000000
    6      -13.469685    -13.469685   1.000000   1.000000
    7      -13.412993    -13.412993   1.000000   1.000000
    8      -13.255024    -13.255024   1.000000   1.000000
    9      -13.227468    -13.227468   1.000000   1.000000
   10      -13.226525    -13.226525   1.000000   1.000000
   11      -13.180647    -13.180647   1.000000   1.000000
   12      -13.073120    -13.073120   1.000000   1.000000
   13      -13.071961    -13.071961   1.000000   1.000000
   14      -13.064589    -13.064589   1.000000   1.000000
   15      -13.055042    -13.055042   1.000000   1.000000
   16      -13.053881    -13.053881   1.000000   1.000000
   17      -13.024985    -13.024985   1.000000   1.000000
   18      -13.009452    -13.009452   1.000000   1.000000
   19      -13.009141    -13.009141   1.000000   1.000000
   20      -12.956780    -12.956780   1.000000   1.000000
   21      -12.888100    -12.888100   1.000000   1.000000
   22      -12.887216    -12.887216   1.000000   1.000000
   23      -12.870667    -12.870667   1.000000   1.000000
   24      -12.834653    -12.834653   1.000000   1.000000
   25      -12.834557    -12.834557   1.000000   1.000000
   26      -12.809146    -12.809146   1.000000   1.000000
   27      -12.799407    -12.799407   1.000000   1.000000
   28      -12.798468    -12.798468   1.000000   1.000000
   29      -12.793098    -12.793098   1.000000   1.000000
   30      -12.790807    -12.790807   1.000000   1.000000
   31      -12.789589    -12.789589   1.000000   1.000000
   32       -1.524550     -1.524550   1.000000   1.000000
   33       -1.478657     -1.478657   1.000000   1.000000
   34       -1.478496     -1.478496   1.000000   1.000000
   35       -1.270840     -1.270840   1.000000   1.000000
   36       -1.104584     -1.104584   1.000000   1.000000
   37       -1.034170     -1.034170   1.000000   1.000000
   38       -1.033653     -1.033653   1.000000   1.000000
   39       -0.963840     -0.963840   1.000000   1.000000
   40       -0.942378     -0.942378   1.000000   1.000000
   41       -0.941314     -0.941314   1.000000   1.000000
   42       -0.900521     -0.900521   1.000000   1.000000
   43       -0.893712     -0.893712   1.000000   1.000000
   44       -0.893050     -0.893050   1.000000   1.000000
   45       -0.833122     -0.833122   1.000000   1.000000
   46       -0.818204     -0.818204   1.000000   1.000000
   47       -0.817607     -0.817607   1.000000   1.000000
   48       -0.702595     -0.702595   1.000000   1.000000
   49       -0.695837     -0.695837   1.000000   1.000000
   50       -0.695213     -0.695213   1.000000   1.000000
   51       -0.679545     -0.679545   1.000000   1.000000
   52       -0.603171     -0.603171   1.000000   1.000000
   53       -0.602086     -0.602086   1.000000   1.000000
   54       -0.539895     -0.539895   1.000000   1.000000
   55       -0.500048     -0.500048   1.000000   1.000000
   56       -0.499600     -0.499600   1.000000   1.000000
   57       -0.277701     -0.277701   1.000000   1.000000
   58       -0.277290     -0.277290   1.000000   1.000000
   59       -0.198993     -0.198993   1.000000   1.000000
   60        0.311382      0.311382   1.000000   1.000000
   61        0.329402      0.329402   1.000000   1.000000
   62        0.329825      0.329825   1.000000   1.000000
   63        0.358517      0.358517   1.000000   1.000000
   64        0.359601      0.359601   1.000000   1.000000
   65        0.366811      0.366811   1.000000   1.000000
   66        0.429105      0.429105   1.000000   1.000000
   67        0.443945      0.443945   1.000000   1.000000
   68        0.472713      0.472713   1.000000   1.000000
   69        0.473438      0.473438   1.000000   1.000000
   70        0.679207      0.679207   1.000000   1.000000
   71        0.680151      0.680151   1.000000   1.000000
   72        1.064264      1.064264   1.000000   1.000000
   73        1.066356      1.066356   1.000000   1.000000
   74        1.070678      1.070678   1.000000   1.000000
   75        1.071388      1.071388   1.000000   1.000000
   76        1.083640      1.083639   1.000000   1.000000
   77        1.083873      1.083873   1.000000   1.000000
   78        1.160923      1.160923   1.000000   1.000000
   79        1.209818      1.209818   1.000000   1.000000
   80        1.212353      1.212353   1.000000   1.000000
   81        1.406915      1.406915   1.000000   1.000000
   82        1.424410      1.424410   1.000000   1.000000
   83        1.424879      1.424879   1.000000   1.000000
   84        1.472665      1.472665   1.000000   1.000000
   85        1.474692      1.474692   1.000000   1.000000
   86        1.477512      1.477512   1.000000   1.000000
   87        1.546719      1.546719   1.000000   1.000000
   88        1.568662      1.568662   1.000000   1.000000
   89        1.569282      1.569282   1.000000   1.000000
   90        1.602605      1.602605   1.000000   1.000000
   91        1.638890      1.638890   1.000000   1.000000
   92        1.639487      1.639487   1.000000   1.000000
   93        1.700921      1.700921   1.000000   1.000000
   94        1.702400      1.702400   1.000000   1.000000
   95        1.721696      1.721696   1.000000   1.000000
   96        1.777962      1.777962   1.000000   1.000000
   97        1.804820      1.804820   1.000000   1.000000
   98        1.805732      1.805732   1.000000   1.000000
   99        1.834058      1.834058   1.000000   1.000000
  100        1.860532      1.860532   1.000000   1.000000
  101        1.861681      1.861681   1.000000   1.000000
  102        1.868714      1.868714   1.000000   1.000000
  103        1.897200      1.897200   1.000000   1.000000
  104        1.914715      1.914715   1.000000   1.000000
  105        1.916096      1.916096   1.000000   1.000000
  106        1.929635      1.929635   1.000000   1.000000
  107        1.935172      1.935172   1.000000   1.000000
  108        1.935759      1.935759   1.000000   1.000000
  109        1.992037      1.992037   1.000000   1.000000
  110        1.993682      1.993682   1.000000   1.000000
  111        2.037355      2.037355   1.000000   1.000000
  112        2.166725      2.166725   1.000000   1.000000
  113        2.167083      2.167083   1.000000   1.000000
  114        2.214904      2.214904   1.000000   1.000000
  115        2.261786      2.261786   1.000000   1.000000
  116        2.262536      2.262536   1.000000   1.000000
  117        2.302852      2.302852   1.000000   1.000000
  118        2.304117      2.304117   1.000000   1.000000
  119        2.304878      2.304878   1.000000   1.000000
  120        2.351323      2.351323   1.000000   1.000000
  121        2.352741      2.352741   1.000000   1.000000
  122        2.373466      2.373466   1.000000   1.000000
  123        2.641941      2.641941   1.000000   1.000000
  124        2.642334      2.642334   1.000000   1.000000
  125        5.313094      5.313094   1.000000   1.000000
  126        8.208167      8.208167   0.000000   0.000000
  127        9.082091      9.082091   0.000000   0.000000
  128        9.084668      9.084668   0.000000   0.000000
  129        9.556703      9.556703   0.000000   0.000000
  130        9.977789      9.977789   0.000000   0.000000
  131       10.232919     10.232919   0.000000   0.000000
  132       10.235028     10.235028   0.000000   0.000000
  133       10.357903     10.357903   0.000000   0.000000
  134       10.722842     10.722842   0.000000   0.000000
  135       10.725260     10.725259   0.000000   0.000000
  136       11.116989     11.116989   0.000000   0.000000
  137       11.117755     11.117755   0.000000   0.000000
  138       11.239496     11.239496   0.000000   0.000000
  139       11.538796     11.538796   0.000000   0.000000
  140       11.720812     11.720812   0.000000   0.000000
  141       11.721847     11.721847   0.000000   0.000000
  142       11.911371     11.911371   0.000000   0.000000
  143       11.971428     11.971428   0.000000   0.000000
  144       11.973883     11.973883   0.000000   0.000000
  145       11.974786     11.974786   0.000000   0.000000
  146       12.171296     12.171296   0.000000   0.000000
  147       12.171640     12.171640   0.000000   0.000000
  148       12.282521     12.282521   0.000000   0.000000
  149       12.284836     12.284836   0.000000   0.000000
  150       12.289035     12.289035   0.000000   0.000000
  151       12.364726     12.364726   0.000000   0.000000
  152       12.632168     12.632168   0.000000   0.000000
  153       12.633781     12.633781   0.000000   0.000000
  154       12.828442     12.828442   0.000000   0.000000
  155       13.001502     13.001502   0.000000   0.000000
  156       13.003433     13.003433   0.000000   0.000000
  157       13.091471     13.091471   0.000000   0.000000
  158       13.128497     13.128497   0.000000   0.000000
  159       13.130632     13.130632   0.000000   0.000000
  160       13.198366     13.198366   0.000000   0.000000
  161       13.216316     13.216316   0.000000   0.000000
  162       13.218013     13.218013   0.000000   0.000000
  163       13.289440     13.289440   0.000000   0.000000
  164       13.291582     13.291582   0.000000   0.000000
  165       13.557136     13.557136   0.000000   0.000000
  166       14.104391     14.104391   0.000000   0.000000
  167       14.136586     14.136586   0.000000   0.000000
  168       14.162536     14.162536   0.000000   0.000000
  169       14.164463     14.164463   0.000000   0.000000
  170       14.175418     14.175418   0.000000   0.000000
  171       14.178415     14.178415   0.000000   0.000000
  172       14.182940     14.182940   0.000000   0.000000
  173       14.184050     14.184050   0.000000   0.000000
  174       14.208111     14.208111   0.000000   0.000000
  175       14.314470     14.314470   0.000000   0.000000
  176       14.483294     14.483294   0.000000   0.000000
  177       14.484625     14.484625   0.000000   0.000000
  178       14.605865     14.605865   0.000000   0.000000
  179       14.619002     14.619002   0.000000   0.000000
  180       14.620142     14.620142   0.000000   0.000000
  181       14.691799     14.691799   0.000000   0.000000
  182       14.695212     14.695212   0.000000   0.000000
  183       14.770570     14.770570   0.000000   0.000000
  184       14.828454     14.828454   0.000000   0.000000
  185       14.832058     14.832058   0.000000   0.000000
  186       14.833144     14.833144   0.000000   0.000000
  187       14.851519     14.851519   0.000000   0.000000
  188       14.925729     14.925729   0.000000   0.000000
  189       14.927093     14.927093   0.000000   0.000000
  190       14.952172     14.952172   0.000000   0.000000
  191       14.967369     14.967369   0.000000   0.000000
  192       14.987812     14.987812   0.000000   0.000000
  193       14.988907     14.988907   0.000000   0.000000
  194       15.294508     15.294508   0.000000   0.000000
  195       15.341892     15.341892   0.000000   0.000000
  196       15.343882     15.343881   0.000000   0.000000
  197       15.535395     15.535427   0.000000   0.000000
  198       15.545541     15.544972   0.000000   0.000000
 
 -0.2500000E+00  0.2500000E+00  0.2500000E+00  0.2500000E+00
    1      -14.112970    -14.112970   1.000000   1.000000
    2      -13.769064    -13.769064   1.000000   1.000000
    3      -13.767564    -13.767564   1.000000   1.000000
    4      -13.701228    -13.701228   1.000000   1.000000
    5      -13.470584    -13.470584   1.000000   1.000000
    6      -13.469182    -13.469182   1.000000   1.000000
    7      -13.413825    -13.413825   1.000000   1.000000
    8      -13.255082    -13.255082   1.000000   1.000000
    9      -13.227458    -13.227458   1.000000   1.000000
   10      -13.225877    -13.225877   1.000000   1.000000
   11      -13.180371    -13.180371   1.000000   1.000000
   12      -13.073206    -13.073206   1.000000   1.000000
   13      -13.072149    -13.072149   1.000000   1.000000
   14      -13.063424    -13.063424   1.000000   1.000000
   15      -13.055845    -13.055845   1.000000   1.000000
   16      -13.054311    -13.054311   1.000000   1.000000
   17      -13.025016    -13.025016   1.000000   1.000000
   18      -13.009626    -13.009626   1.000000   1.000000
   19      -13.008940    -13.008940   1.000000   1.000000
   20      -12.957466    -12.957466   1.000000   1.000000
   21      -12.887955    -12.887955   1.000000   1.000000
   22      -12.886505    -12.886505   1.000000   1.000000
   23      -12.870806    -12.870806   1.000000   1.000000
   24      -12.834816    -12.834816   1.000000   1.000000
   25      -12.834458    -12.834458   1.000000   1.000000
   26      -12.809186    -12.809186   1.000000   1.000000
   27      -12.799547    -12.799547   1.000000   1.000000
   28      -12.798336    -12.798336   1.000000   1.000000
   29      -12.792211    -12.792211   1.000000   1.000000
   30      -12.791406    -12.791406   1.000000   1.000000
   31      -12.789898    -12.789898   1.000000   1.000000
   32       -1.524530     -1.524530   1.000000   1.000000
   33       -1.478754     -1.478754   1.000000   1.000000
   34       -1.478602     -1.478602   1.000000   1.000000
   35       -1.271187     -1.271187   1.000000   1.000000
   36       -1.104484     -1.104484   1.000000   1.000000
   37       -1.034364     -1.034364   1.000000   1.000000
   38       -1.033920     -1.033920   1.000000   1.000000
   39       -0.964255     -0.964255   1.000000   1.000000
   40       -0.942221     -0.942221   1.000000   1.000000
   41       -0.940644     -0.940644   1.000000   1.000000
   42       -0.900811     -0.900811   1.000000   1.000000
   43       -0.893469     -0.893469   1.000000   1.000000
   44       -0.892466     -0.892466   1.000000   1.000000
   45       -0.833595     -0.833595   1.000000   1.000000
   46       -0.817926     -0.817926   1.000000   1.000000
   47       -0.816735     -0.816735   1.000000   1.000000
   48       -0.702100     -0.702100   1.000000   1.000000
   49       -0.695837     -0.695837   1.000000   1.000000
   50       -0.694650     -0.694650   1.000000   1.000000
   51       -0.680030     -0.680030   1.000000   1.000000
   52       -0.603269     -0.603269   1.000000   1.000000
   53       -0.602130     -0.602130   1.000000   1.000000
   54       -0.539755     -0.539755   1.000000   1.000000
   55       -0.500480     -0.500480   1.000000   1.000000
   56       -0.499572     -0.499572   1.000000   1.000000
   57       -0.277979     -0.277979   1.000000   1.000000
   58       -0.277521     -0.277521   1.000000   1.000000
   59       -0.199766     -0.199766   1.000000   1.000000
   60        0.311283      0.311283   1.000000   1.000000
   61        0.329597      0.329597   1.000000   1.000000
   62        0.330178      0.330178   1.000000   1.000000
   63        0.359255      0.359255   1.000000   1.000000
   64        0.360042      0.360042   1.000000   1.000000
   65        0.367444      0.367444   1.000000   1.000000
   66        0.428610      0.428610   1.000000   1.000000
   67        0.443240      0.443240   1.000000   1.000000
   68        0.471821      0.471821   1.000000   1.000000
   69        0.472569      0.472569   1.000000   1.000000
   70        0.679823      0.679823   1.000000   1.000000
   71        0.680830      0.680830   1.000000   1.000000
   72        1.064170      1.064170   1.000000   1.000000
   73        1.066322      1.066322   1.000000   1.000000
   74        1.070794      1.070794   1.000000   1.000000
   75        1.071595      1.071595   1.000000   1.000000
   76        1.083713      1.083713   1.000000   1.000000
   77        1.084298      1.084298   1.000000   1.000000
   78        1.159689      1.159689   1.000000   1.000000
   79        1.208869      1.208869   1.000000   1.000000
   80        1.211066      1.211066   1.000000   1.000000
   81        1.407124      1.407124   1.000000   1.000000
   82        1.424736      1.424736   1.000000   1.000000
   83        1.425388      1.425388   1.000000   1.000000
   84        1.473995      1.473995   1.000000   1.000000
   85        1.476233      1.476233   1.000000   1.000000
   86        1.477939      1.477939   1.000000   1.000000
   87        1.546860      1.546860   1.000000   1.000000
   88        1.568100      1.568100   1.000000   1.000000
   89        1.568681      1.568681   1.000000   1.000000
   90        1.602424      1.602424   1.000000   1.000000
   91        1.639601      1.639601   1.000000   1.000000
   92        1.640482      1.640482   1.000000   1.000000
   93        1.700274      1.700274   1.000000   1.000000
   94        1.701735      1.701735   1.000000   1.000000
   95        1.719057      1.719057   1.000000   1.000000
   96        1.778301      1.778301   1.000000   1.000000
   97        1.804494      1.804494   1.000000   1.000000
   98        1.805715      1.805715   1.000000   1.000000
   99        1.833694      1.833694   1.000000   1.000000
  100        1.861147      1.861147   1.000000   1.000000
  101        1.863561      1.863561   1.000000   1.000000
  102        1.868403      1.868403   1.000000   1.000000
  103        1.898176      1.898176   1.000000   1.000000
  104        1.914525      1.914525   1.000000   1.000000
  105        1.915751      1.915751   1.000000   1.000000
  106        1.929756      1.929756   1.000000   1.000000
  107        1.934975      1.934975   1.000000   1.000000
  108        1.935724      1.935724   1.000000   1.000000
  109        1.992439      1.992439   1.000000   1.000000
  110        1.994049      1.994049   1.000000   1.000000
  111        2.037381      2.037381   1.000000   1.000000
  112        2.166514      2.166514   1.000000   1.000000
  113        2.167102      2.167102   1.000000   1.000000
  114        2.213581      2.213581   1.000000   1.000000
  115        2.260952      2.260952   1.000000   1.000000
  116        2.261540      2.261540   1.000000   1.000000
  117        2.302626      2.302626   1.000000   1.000000
  118        2.303795      2.303795   1.000000   1.000000
  119        2.304971      2.304971   1.000000   1.000000
  120        2.351980      2.351980   1.000000   1.000000
  121        2.354059      2.354059   1.000000   1.000000
  122        2.374231      2.374231   1.000000   1.000000
  123        2.641892      2.641892   1.000000   1.000000
  124        2.642239      2.642239   1.000000   1.000000
  125        5.313019      5.313019   1.000000   1.000000
  126        8.208262      8.208262   0.000000   0.000000
  127        9.081743      9.081743   0.000000   0.000000
  128        9.083825      9.083825   0.000000   0.000000
  129        9.558590      9.558590   0.000000   0.000000
  130        9.978042      9.978042   0.000000   0.000000
  131       10.232342     10.232342   0.000000   0.000000
  132       10.234726     10.234726   0.000000   0.000000
  133       10.358315     10.358315   0.000000   0.000000
  134       10.722098     10.722098   0.000000   0.000000
  135       10.723404     10.723404   0.000000   0.000000
  136       11.117348     11.117348   0.000000   0.000000
  137       11.118464     11.118464   0.000000   0.000000
  138       11.239953     11.239953   0.000000   0.000000
  139       11.540144     11.540144   0.000000   0.000000
  140       11.720370     11.720370   0.000000   0.000000
  141       11.721521     11.721521   0.000000   0.000000
  142       11.911450     11.911450   0.000000   0.000000
  143       11.969899     11.969899   0.000000   0.000000
  144       11.974412     11.974412   0.000000   0.000000
  145       11.975621     11.975621   0.000000   0.000000
  146       12.171328     12.171328   0.000000   0.000000
  147       12.171754     12.171754   0.000000   0.000000
  148       12.281908     12.281908   0.000000   0.000000
  149       12.284611     12.284611   0.000000   0.000000
  150       12.291590     12.291590   0.000000   0.000000
  151       12.365422     12.365422   0.000000   0.000000
  152       12.630893     12.630893   0.000000   0.000000
  153       12.633089     12.633089   0.000000   0.000000
  154       12.828487     12.828487   0.000000   0.000000
  155       13.000507     13.000507   0.000000   0.000000
  156       13.005085     13.005085   0.000000   0.000000
  157       13.090045     13.090045   0.000000   0.000000
  158       13.129563     13.129563   0.000000   0.000000
  159       13.131613     13.131613   0.000000   0.000000
  160       13.195792     13.195792   0.000000   0.000000
  161       13.216829     13.216829   0.000000   0.000000
  162       13.219038     13.219038   0.000000   0.000000
  163       13.288753     13.288753   0.000000   0.000000
  164       13.292189     13.292189   0.000000   0.000000
  165       13.552427     13.552427   0.000000   0.000000
  166       14.107333     14.107333   0.000000   0.000000
  167       14.134335     14.134335   0.000000   0.000000
  168       14.163049     14.163049   0.000000   0.000000
  169       14.165801     14.165801   0.000000   0.000000
  170       14.179112     14.179112   0.000000   0.000000
  171       14.180119     14.180119   0.000000   0.000000
  172       14.183289     14.183289   0.000000   0.000000
  173       14.185515     14.185515   0.000000   0.000000
  174       14.207955     14.207955   0.000000   0.000000
  175       14.314217     14.314217   0.000000   0.000000
  176       14.479262     14.479262   0.000000   0.000000
  177       14.482199     14.482199   0.000000   0.000000
  178       14.604822     14.604822   0.000000   0.000000
  179       14.618692     14.618692   0.000000   0.000000
  180       14.620881     14.620881   0.000000   0.000000
  181       14.693700     14.693700   0.000000   0.000000
  182       14.698102     14.698102   0.000000   0.000000
  183       14.768351     14.768351   0.000000   0.000000
  184       14.824763     14.824763   0.000000   0.000000
  185       14.832469     14.832468   0.000000   0.000000
  186       14.833964     14.833964   0.000000   0.000000
  187       14.851746     14.851746   0.000000   0.000000
  188       14.924579     14.924579   0.000000   0.000000
  189       14.926041     14.926041   0.000000   0.000000
  190       14.951917     14.951917   0.000000   0.000000
  191       14.966746     14.966746   0.000000   0.000000
  192       14.988251     14.988251   0.000000   0.000000
  193       14.989856     14.989856   0.000000   0.000000
  194       15.295031     15.295032   0.000000   0.000000
  195       15.343148     15.343148   0.000000   0.000000
  196       15.344637     15.344638   0.000000   0.000000
  197       15.536614     15.535652   0.000000   0.000000
  198       15.546402     15.545912   0.000000   0.000000
 
  0.2500000E+00 -0.2500000E+00  0.2500000E+00  0.2500000E+00
    1      -14.112977    -14.112977   1.000000   1.000000
    2      -13.769352    -13.769352   1.000000   1.000000
    3      -13.767061    -13.767061   1.000000   1.000000
    4      -13.701504    -13.701504   1.000000   1.000000
    5      -13.470863    -13.470863   1.000000   1.000000
    6      -13.468703    -13.468703   1.000000   1.000000
    7      -13.413997    -13.413997   1.000000   1.000000
    8      -13.255093    -13.255093   1.000000   1.000000
    9      -13.227855    -13.227855   1.000000   1.000000
   10      -13.225302    -13.225302   1.000000   1.000000
   11      -13.180498    -13.180498   1.000000   1.000000
   12      -13.073255    -13.073255   1.000000   1.000000
   13      -13.072202    -13.072202   1.000000   1.000000
   14      -13.062930    -13.062930   1.000000   1.000000
   15      -13.055804    -13.055804   1.000000   1.000000
   16      -13.054765    -13.054765   1.000000   1.000000
   17      -13.025031    -13.025031   1.000000   1.000000
   18      -13.009802    -13.009802   1.000000   1.000000
   19      -13.008602    -13.008602   1.000000   1.000000
   20      -12.957707    -12.957707   1.000000   1.000000
   21      -12.888206    -12.888206   1.000000   1.000000
   22      -12.886011    -12.886011   1.000000   1.000000
   23      -12.870932    -12.870932   1.000000   1.000000
   24      -12.835006    -12.835006   1.000000   1.000000
   25      -12.834264    -12.834264   1.000000   1.000000
   26      -12.809221    -12.809221   1.000000   1.000000
   27      -12.799692    -12.799692   1.000000   1.000000
   28      -12.798242    -12.798242   1.000000   1.000000
   29      -12.791694    -12.791694   1.000000   1.000000
   30      -12.791196    -12.791196   1.000000   1.000000
   31      -12.790549    -12.790549   1.000000   1.000000
   32       -1.524529     -1.524529   1.000000   1.000000
   33       -1.478860     -1.478860   1.000000   1.000000
   34       -1.478540     -1.478540   1.000000   1.000000
   35       -1.271232     -1.271232   1.000000   1.000000
   36       -1.104520     -1.104520   1.000000   1.000000
   37       -1.034600     -1.034600   1.000000   1.000000
   38       -1.033910     -1.033910   1.000000   1.000000
   39       -0.964344     -0.964344   1.000000   1.000000
   40       -0.942447     -0.942447   1.000000   1.000000
   41       -0.940178     -0.940178   1.000000   1.000000
   42       -0.900841     -0.900841   1.000000   1.000000
   43       -0.892948     -0.892948   1.000000   1.000000
   44       -0.892637     -0.892637   1.000000   1.000000
   45       -0.833771     -0.833771   1.000000   1.000000
   46       -0.817700     -0.817700   1.000000   1.000000
   47       -0.816852     -0.816852   1.000000   1.000000
   48       -0.701936     -0.701936   1.000000   1.000000
   49       -0.695605     -0.695605   1.000000   1.000000
   50       -0.694740     -0.694740   1.000000   1.000000
   51       -0.680070     -0.680070   1.000000   1.000000
   52       -0.603728     -0.603728   1.000000   1.000000
   53       -0.601420     -0.601420   1.000000   1.000000
   54       -0.540004     -0.540004   1.000000   1.000000
   55       -0.500771     -0.500771   1.000000   1.000000
   56       -0.499287     -0.499287   1.000000   1.000000
   57       -0.278233     -0.278233   1.000000   1.000000
   58       -0.277402     -0.277402   1.000000   1.000000
   59       -0.200011     -0.200011   1.000000   1.000000
   60        0.311292      0.311292   1.000000   1.000000
   61        0.329216      0.329216   1.000000   1.000000
   62        0.330639      0.330639   1.000000   1.000000
   63        0.359025      0.359025   1.000000   1.000000
   64        0.360208      0.360208   1.000000   1.000000
   65        0.367252      0.367252   1.000000   1.000000
   66        0.428534      0.428534   1.000000   1.000000
   67        0.443396      0.443396   1.000000   1.000000
   68        0.471912      0.471912   1.000000   1.000000
   69        0.472607      0.472607   1.000000   1.000000
   70        0.679670      0.679670   1.000000   1.000000
   71        0.680894      0.680894   1.000000   1.000000
   72        1.064094      1.064094   1.000000   1.000000
   73        1.066293      1.066293   1.000000   1.000000
   74        1.070608      1.070608   1.000000   1.000000
   75        1.071857      1.071857   1.000000   1.000000
   76        1.083540      1.083540   1.000000   1.000000
   77        1.084492      1.084492   1.000000   1.000000
   78        1.159744      1.159744   1.000000   1.000000
   79        1.209149      1.209149   1.000000   1.000000
   80        1.210545      1.210545   1.000000   1.000000
   81        1.407314      1.407314   1.000000   1.000000
   82        1.424642      1.424642   1.000000   1.000000
   83        1.425627      1.425627   1.000000   1.000000
   84        1.474160      1.474160   1.000000   1.000000
   85        1.476047      1.476047   1.000000   1.000000
   86        1.477831      1.477831   1.000000   1.000000
   87        1.546831      1.546831   1.000000   1.000000
   88        1.567891      1.567891   1.000000   1.000000
   89        1.568962      1.568962   1.000000   1.000000
   90        1.602530      1.602530   1.000000   1.000000
   91        1.639472      1.639472   1.000000   1.000000
   92        1.640698      1.640698   1.000000   1.000000
   93        1.700341      1.700341   1.000000   1.000000
   94        1.701708      1.701708   1.000000   1.000000
   95        1.718797      1.718797   1.000000   1.000000
   96        1.778263      1.778263   1.000000   1.000000
   97        1.804377      1.804377   1.000000   1.000000
   98        1.805987      1.805987   1.000000   1.000000
   99        1.833764      1.833764   1.000000   1.000000
  100        1.861635      1.861635   1.000000   1.000000
  101        1.862751      1.862751   1.000000   1.000000
  102        1.868498      1.868498   1.000000   1.000000
  103        1.898309      1.898309   1.000000   1.000000
  104        1.914517      1.914517   1.000000   1.000000
  105        1.915867      1.915867   1.000000   1.000000
  106        1.930013      1.930013   1.000000   1.000000
  107        1.934431      1.934431   1.000000   1.000000
  108        1.936111      1.936111   1.000000   1.000000
  109        1.992733      1.992733   1.000000   1.000000
  110        1.993797      1.993797   1.000000   1.000000
  111        2.037365      2.037365   1.000000   1.000000
  112        2.166157      2.166157   1.000000   1.000000
  113        2.167575      2.167575   1.000000   1.000000
  114        2.213347      2.213347   1.000000   1.000000