       N       E                     dE             d eps       ncg     rms          rms(c)
DAV:   1    -0.388837158366E+03   -0.38884E+03   -0.15119E-05  3132   0.260E-02    0.993E-03
DAV:   2    -0.388837155422E+03    0.29441E-05   -0.83185E-06  2160   0.128E-02
   1 F= -.38883716E+03 E0= -.38883716E+03  d E =-.388837E+03  mag=    -0.0000
