PROCAR new format
# of k-points:    4         # of bands:  198         # of ions:   63

 k-point     1 :    0.25000000 0.25000000 0.25000000     weight = 0.25000000

band     1 # energy  -14.11293485 # occ.  1.00000000
 
ion      s      p      d    tot
    1  0.001  0.000  0.000  0.001
    2  0.001  0.000  0.000  0.001
    3  0.001  0.000  0.000  0.001
    4  0.001  0.000  0.000  0.001
    5  0.001  0.000  0.000  0.001
    6  0.001  0.000  0.000  0.001
    7  0.001  0.000  0.000  0.001
    8  0.001  0.000  0.000  0.001
    9  0.001  0.000  0.000  0.001
   10  0.001  0.000  0.000  0.001
   11  0.001  0.000  0.000  0.001
   12  0.001  0.000  0.000  0.001
   13  0.001  0.000  0.000  0.001
   14  0.001  0.000  0.000  0.001
   15  0.001  0.000  0.000  0.001
   16  0.001  0.000  0.000  0.001
   17  0.001  0.000  0.000  0.001
   18  0.001  0.000  0.000  0.001
   19  0.001  0.000  0.000  0.001
   20  0.001  0.000  0.000  0.001
   21  0.001  0.000  0.000  0.001
   22  0.001  0.000  0.000  0.001
   23  0.001  0.000  0.000  0.001
   24  0.001  0.000  0.000  0.001
   25  0.001  0.000  0.000  0.001
   26  0.001  0.000  0.000  0.001
   27  0.001  0.000  0.000  0.001
   28  0.001  0.000  0.000  0.001
   29  0.001  0.000  0.000  0.001
   30  0.001  0.000  0.000  0.001
   31  0.001  0.000  0.000  0.001
   32  0.001  0.000  0.000  0.001
   33  0.024  0.000  0.000  0.024
   34  0.024  0.000  0.000  0.024
   35  0.024  0.000  0.000  0.024
   36  0.023  0.000  0.000  0.023
   37  0.025  0.000  0.000  0.025
   38  0.025  0.000  0.000  0.025
   39  0.025  0.000  0.000  0.025
   40  0.021  0.000  0.000  0.021
   41  0.019  0.000  0.000  0.019
   42  0.019  0.000  0.000  0.019
   43  0.021  0.000  0.000  0.021
   44  0.024  0.000  0.000  0.024
   45  0.023  0.000  0.000  0.023
   46  0.023  0.000  0.000  0.023
   47  0.023  0.000  0.000  0.023
   48  0.019  0.000  0.000  0.019
   49  0.021  0.000  0.000  0.021
   50  0.023  0.000  0.000  0.023
   51  0.024  0.000  0.000  0.024
   52  0.021  0.000  0.000  0.021
   53  0.019  0.000  0.000  0.019
   54  0.024  0.000  0.000  0.024
   55  0.023  0.000  0.000  0.023
   56  0.019  0.000  0.000  0.019
   57  0.023  0.000  0.000  0.023
   58  0.021  0.000  0.000  0.021
   59  0.023  0.000  0.000  0.023
   60  0.021  0.000  0.000  0.021
   61  0.024  0.000  0.000  0.024
   62  0.019  0.000  0.000  0.019
   63  0.023  0.000  0.000  0.023
tot    0.728  0.003  0.000  0.731
 
band     2 # energy  -13.76908299 # occ.  1.00000000
 
ion      s      p      d    tot
    1  0.000  0.000  0.000  0.001
    2  0.001  0.000  0.000  0.001
    3  0.002  0.000  0.000  0.002
    4  0.000  0.000  0.000  0.001
    5  0.000  0.000  0.000  0.001
    6  0.002  0.000  0.000  0.002
    7  0.001  0.000  0.000  0.001
    8  0.000  0.000  0.000  0.001
    9  0.001  0.000  0.000  0.001
   10  0.002  0.000  0.000  0.002
   11  0.001  0.000  0.000  0.001
   12  0.000  0.000  0.000  0.000
   13  0.000  0.000  0.000  0.000
   14  0.001  0.000  0.000  0.001
   15  0.002  0.000  0.000  0.002
   16  0.001  0.000  0.000  0.001
   17  0.000  0.000  0.000  0.001
   18  0.000  0.000  0.000  0.001
   19  0.002  0.000  0.000  0.002
   20  0.001  0.000  0.000  0.001
   21  0.001  0.000  0.000  0.001
   22  0.002  0.000  0.000  0.002
   23  0.000  0.000  0.000  0.001
   24  0.000  0.000  0.000  0.001
   25  0.001  0.000  0.000  0.001
   26  0.000  0.000  0.000  0.000
   27  0.001  0.000  0.000  0.001
   28  0.001  0.000  0.000  0.001
   29  0.001  0.000  0.000  0.001
   30  0.001  0.000  0.000  0.001
   31  0.000  0.000  0.000  0.001
   32  0.001  0.000  0.000  0.001
   33  0.020  0.000  0.000  0.020
   34  0.065  0.000  0.000  0.065
   35  0.014  0.000  0.000  0.014
   36  0.017  0.000  0.000  0.017
   37  0.055  0.000  0.000  0.055
   38  0.017  0.000  0.000  0.017
   39  0.000  0.000  0.000  0.000
   40  0.008  0.000  0.000  0.008
   41  0.027  0.000  0.000  0.027
   42  0.049  0.000  0.000  0.049
   43  0.008  0.000  0.000  0.008
   44  0.007  0.000  0.000  0.007
   45  0.045  0.000  0.000  0.045
   46  0.023  0.000  0.000  0.023
   47  0.007  0.000  0.000  0.007
   48  0.005  0.000  0.000  0.005
   49  0.029  0.000  0.000  0.029
   50  0.026  0.000  0.000  0.027
   51  0.027  0.000  0.000  0.027
   52  0.029  0.000  0.000  0.029
   53  0.029  0.000  0.000  0.029
   54  0.027  0.000  0.000  0.027
   55  0.005  0.000  0.000  0.005
   56  0.048  0.000  0.000  0.048
   57  0.022  0.000  0.000  0.022
   58  0.009  0.000  0.000  0.009
   59  0.008  0.000  0.000  0.008
   60  0.009  0.000  0.000  0.009
   61  0.008  0.000  0.000  0.009
   62  0.026  0.000  0.000  0.026
   63  0.043  0.000  0.000  0.043
tot    0.739  0.008  0.000  0.748
 
band     3 # energy  -13.76814014 # occ.  1.00000000
 
ion      s      p      d    tot
    1  0.001  0.000  0.000  0.001
    2  0.001  0.000  0.000  0.001
    3  0.000  0.000  0.000  0.001
    4  0.001  0.000  0.000  0.001
    5  0.001  0.000  0.000  0.001
    6  0.000  0.000  0.000  0.001
    7  0.001  0.000  0.000  0.001
    8  0.001  0.000  0.000  0.001
    9  0.002  0.000  0.000  0.002
   10  0.000  0.000  0.000  0.000
   11  0.001  0.000  0.000  0.002
   12  0.000  0.000  0.000  0.000
   13  0.000  0.000  0.000  0.000
   14  0.001  0.000  0.000  0.002
   15  0.000  0.000  0.000  0.000
   16  0.002  0.000  0.000  0.002
   17  0.001  0.000  0.000  0.001
   18  0.001  0.000  0.000  0.001
   19  0.000  0.000  0.000  0.001
   20  0.001  0.000  0.000  0.001
   21  0.001  0.000  0.000  0.001
   22  0.000  0.000  0.000  0.001
   23  0.001  0.000  0.000  0.001
   24  0.001  0.000  0.000  0.001
   25  0.000  0.000  0.000  0.000
   26  0.002  0.000  0.000  0.002
   27  0.000  0.000  0.000  0.000
   28  0.001  0.000  0.000  0.001
   29  0.001  0.000  0.000  0.001
   30  0.000  0.000  0.000  0.000
   31  0.002  0.000  0.000  0.002
   32  0.000  0.000  0.000  0.000
   33  0.048  0.000  0.000  0.048
   34  0.003  0.000  0.000  0.003
   35  0.043  0.000  0.000  0.043
   36  0.050  0.000  0.000  0.050
   37  0.003  0.000  0.000  0.003
   38  0.041  0.000  0.000  0.041
   39  0.000  0.000  0.000  0.000
   40  0.024  0.000  0.000  0.024
   41  0.035  0.000  0.000  0.035
   42  0.011  0.000  0.000  0.011
   43  0.022  0.000  0.000  0.022
   44  0.021  0.000  0.000  0.021
   45  0.011  0.000  0.000  0.011
   46  0.031  0.000  0.000  0.031
   47  0.021  0.000  0.000  0.021
   48  0.055  0.000  0.000  0.055
   49  0.002  0.000  0.000  0.002
   50  0.028  0.000  0.000  0.028
   51  0.001  0.000  0.000  0.001
   52  0.002  0.000  0.000  0.002
   53  0.033  0.000  0.000  0.033
   54  0.001  0.000  0.000  0.001
   55  0.050  0.000  0.000  0.050
   56  0.013  0.000  0.000  0.013
   57  0.033  0.000  0.000  0.033
   58  0.022  0.000  0.000  0.022
   59  0.019  0.000  0.000  0.019
   60  0.021  0.000  0.000  0.021
   61  0.020  0.000  0.000  0.020
   62  0.037  0.000  0.000  0.037
   63  0.012  0.000  0.000  0.012
tot    0.739  0.008  0.000  0.748
 
band     4 # energy  -13.70059832 # occ.  1.00000000
 
ion      s      p      d    tot
    1  0.001  0.000  0.000  0.001
    2  0.000  0.000  0.000  0.001
    3  0.000  0.000  0.000  0.001
    4  0.001  0.000  0.000  0.002
    5  0.001  0.000  0.000  0.001
    6  0.000  0.000  0.000  0.001
    7  0.000  0.000  0.000  0.001
    8  0.001  0.000  0.000  0.002
    9  0.000  0.000  0.000  0.001
   10  0.000  0.000  0.000  0.001
   11  0.000  0.000  0.000  0.001
   12  0.003  0.000  0.000  0.003
   13  0.003  0.000  0.000  0.003
   14  0.000  0.000  0.000  0.001
   15  0.000  0.000  0.000  0.001
   16  0.000  0.000  0.000  0.001
   17  0.001  0.000  0.000  0.001
   18  0.001  0.000  0.000  0.001
   19  0.000  0.000  0.000  0.001
   20  0.000  0.000  0.000  0.001
   21  0.000  0.000  0.000  0.001
   22  0.000  0.000  0.000  0.001
   23  0.001  0.000  0.000  0.002
   24  0.001  0.000  0.000  0.002
   25  0.001  0.000  0.000  0.001
   26  0.000  0.000  0.000  0.001
   27  0.001  0.000  0.000  0.001
   28  0.000  0.000  0.000  0.001
   29  0.000  0.000  0.000  0.001
   30  0.001  0.000  0.000  0.002
   31  0.000  0.000  0.000  0.001
   32  0.001  0.000  0.000  0.002
   33  0.018  0.000  0.000  0.018
   34  0.017  0.000  0.000  0.017
   35  0.004  0.000  0.000  0.004
   36  0.018  0.000  0.000  0.018
   37  0.004  0.000  0.000  0.004
   38  0.004  0.000  0.000  0.004
   39  0.079  0.000  0.000  0.079
   40  0.038  0.000  0.000  0.038
   41  0.007  0.000  0.000  0.007
   42  0.006  0.000  0.000  0.006
   43  0.038  0.000  0.000  0.038
   44  0.047  0.000  0.000  0.047
   45  0.005  0.000  0.000  0.005
   46  0.005  0.000  0.000  0.005
   47  0.045  0.000  0.000  0.045
   48  0.006  0.000  0.000  0.006
   49  0.038  0.000  0.000  0.038
   50  0.006  0.000  0.000  0.006
   51  0.046  0.000  0.000  0.046
   52  0.037  0.000  0.000  0.037
   53  0.007  0.000  0.000  0.007
   54  0.046  0.000  0.000  0.046
   55  0.005  0.000  0.000  0.005
   56  0.006  0.000  0.000  0.006
   57  0.005  0.000  0.000  0.005
   58  0.037  0.000  0.000  0.037
   59  0.047  0.000  0.000  0.047
   60  0.037  0.000  0.000  0.037
   61  0.046  0.000  0.000  0.046
   62  0.007  0.000  0.000  0.007
   63  0.005  0.000  0.000  0.005
tot    0.742  0.008  0.001  0.751
 
band     5 # energy  -13.47055632 # occ.  1.00000000
 
ion      s      p      d    tot
    1  0.000  0.000  0.000  0.000
    2  0.001  0.000  0.000  0.001
    3  0.001  0.000  0.000  0.002
    4  0.000  0.000  0.000  0.000
    5  0.000  0.000  0.000  0.000
    6  0.001  0.000  0.000  0.002
    7  0.001  0.000  0.000  0.001
    8  0.000  0.000  0.000  0.000
    9  0.000  0.000  0.000  0.001
   10  0.001  0.000  0.000  0.002
   11  0.000  0.000  0.000  0.001
   12  0.000  0.000  0.000  0.000
   13  0.000  0.000  0.000  0.000
   14  0.000  0.000  0.000  0.001
   15  0.001  0.000  0.000  0.002
   16  0.000  0.000  0.000  0.001
   17  0.000  0.000  0.000  0.001
   18  0.000  0.000  0.000  0.001
   19  0.001  0.000  0.000  0.001
   20  0.001  0.000  0.000  0.001
   21  0.001  0.000  0.000  0.001
   22  0.001  0.000  0.000  0.002
   23  0.000  0.000  0.000  0.001
   24  0.000  0.000  0.000  0.001
   25  0.001  0.000  0.000  0.001
   26  0.000  0.000  0.000  0.000
   27  0.001  0.000  0.000  0.001
   28  0.001  0.000  0.000  0.001
   29  0.001  0.000  0.000  0.001
   30  0.001  0.000  0.000  0.001
   31  0.000  0.000  0.000  0.000
   32  0.001  0.000  0.000  0.001
   33  0.023  0.000  0.000  0.023
   34  0.063  0.000  0.000  0.063
   35  0.014  0.000  0.000  0.014
   36  0.014  0.000  0.000  0.014
   37  0.062  0.000  0.000  0.062
   38  0.022  0.000  0.000  0.022
   39  0.000  0.000  0.000  0.000
   40  0.007  0.000  0.000  0.007
   41  0.026  0.000  0.000  0.026
   42  0.048  0.000  0.000  0.048
   43  0.007  0.000  0.000  0.007
   44  0.006  0.000  0.000  0.006
   45  0.050  0.000  0.000  0.050
   46  0.028  0.000  0.000  0.028
   47  0.006  0.000  0.000  0.006
   48  0.007  0.000  0.000  0.007
   49  0.031  0.000  0.000  0.031
   50  0.025  0.000  0.000  0.025
   51  0.026  0.000  0.000  0.026
   52  0.031  0.000  0.000  0.031
   53  0.030  0.000  0.000  0.030
   54  0.027  0.000  0.000  0.027
   55  0.004  0.000  0.000  0.004
   56  0.046  0.000  0.000  0.046
   57  0.024  0.000  0.000  0.024
   58  0.011  0.000  0.000  0.011
   59  0.009  0.000  0.000  0.009
   60  0.010  0.000  0.000  0.010
   61  0.009  0.000  0.000  0.009
   62  0.023  0.000  0.000  0.023
   63  0.046  0.000  0.000  0.046
tot    0.751  0.012  0.001  0.764
 
band     6 # energy  -13.46968501 # occ.  1.00000000
 
ion      s      p      d    tot
    1  0.001  0.000  0.000  0.001
    2  0.001  0.000  0.000  0.001
    3  0.000  0.000  0.000  0.001
    4  0.001  0.000  0.000  0.001
    5  0.001  0.000  0.000  0.001
    6  0.000  0.000  0.000  0.001
    7  0.001  0.000  0.000  0.001
    8  0.001  0.000  0.000  0.001
    9  0.001  0.000  0.000  0.001
   10  0.000  0.000  0.000  0.000
   11  0.001  0.000  0.000  0.001
   12  0.000  0.000  0.000  0.000
   13  0.000  0.000  0.000  0.000
   14  0.001  0.000  0.000  0.001
   15  0.000  0.000  0.000  0.000
   16  0.001  0.000  0.000  0.001
   17  0.000  0.000  0.000  0.001
   18  0.000  0.000  0.000  0.001
   19  0.000  0.000  0.000  0.001
   20  0.001  0.000  0.000  0.001
   21  0.001  0.000  0.000  0.001
   22  0.000  0.000  0.000  0.001
   23  0.000  0.000  0.000  0.001
   24  0.000  0.000  0.000  0.001
   25  0.000  0.000  0.000  0.000
   26  0.001  0.000  0.000  0.002
   27  0.000  0.000  0.000  0.000
   28  0.001  0.000  0.000  0.001
   29  0.001  0.000  0.000  0.001
   30  0.000  0.000  0.000  0.000
   31  0.001  0.000  0.000  0.002
   32  0.000  0.000  0.000  0.000
   33  0.044  0.000  0.000  0.044
   34  0.004  0.000  0.000  0.004
   35  0.051  0.000  0.000  0.051
   36  0.052  0.000  0.000  0.052
   37  0.004  0.000  0.000  0.004
   38  0.044  0.000  0.000  0.044
   39  0.000  0.000  0.000  0.000
   40  0.026  0.000  0.000  0.026
   41  0.035  0.000  0.000  0.035
   42  0.011  0.000  0.000  0.011
   43  0.024  0.000  0.000  0.024
   44  0.022  0.000  0.000  0.022
   45  0.010  0.000  0.000  0.010
   46  0.030  0.000  0.000  0.030
   47  0.022  0.000  0.000  0.022
   48  0.053  0.000  0.000  0.053
   49  0.002  0.000  0.000  0.002
   50  0.033  0.000  0.000  0.033
   51  0.002  0.000  0.000  0.002
   52  0.002  0.000  0.000  0.002
   53  0.030  0.000  0.000  0.030
   54  0.001  0.000  0.000  0.001
   55  0.055  0.000  0.000  0.055
   56  0.014  0.000  0.000  0.014
   57  0.034  0.000  0.000  0.034
   58  0.023  0.000  0.000  0.023
   59  0.018  0.000  0.000  0.018
   60  0.020  0.000  0.000  0.020
   61  0.018  0.000  0.000  0.018
   62  0.038  0.000  0.000  0.038
   63  0.014  0.000  0.000  0.014
tot    0.751  0.012  0.001  0.764
 
band     7 # energy  -13.41299297 # occ.  1.00000000
 
ion      s      p      d    tot
    1  0.001  0.000  0.000  0.001
    2  0.000  0.000  0.000  0.001
    3  0.000  0.000  0.000  0.001
    4  0.001  0.000  0.000  0.001
    5  0.001  0.000  0.000  0.001
    6  0.000  0.000  0.000  0.001
    7  0.000  0.000  0.000  0.001
    8  0.001  0.000  0.000  0.001
    9  0.000  0.000  0.000  0.001
   10  0.000  0.000  0.000  0.001
   11  0.000  0.000  0.000  0.001
   12  0.002  0.000  0.000  0.002
   13  0.002  0.000  0.000  0.002
   14  0.000  0.000  0.000  0.001
   15  0.000  0.000  0.000  0.001
   16  0.000  0.000  0.000  0.001
   17  0.001  0.000  0.000  0.001
   18  0.001  0.000  0.000  0.001
   19  0.000  0.000  0.000  0.001
   20  0.000  0.000  0.000  0.001
   21  0.000  0.000  0.000  0.001
   22  0.000  0.000  0.000  0.001
   23  0.001  0.000  0.000  0.001
   24  0.001  0.000  0.000  0.001
   25  0.001  0.000  0.000  0.001
   26  0.000  0.000  0.000  0.001
   27  0.001  0.000  0.000  0.001
   28  0.000  0.000  0.000  0.001
   29  0.000  0.000  0.000  0.001
   30  0.001  0.000  0.000  0.001
   31  0.000  0.000  0.000  0.001
   32  0.001  0.000  0.000  0.001
   33  0.002  0.000  0.000  0.002
   34  0.002  0.000  0.000  0.002
   35  0.008  0.000  0.000  0.008
   36  0.002  0.000  0.000  0.002
   37  0.008  0.000  0.000  0.008
   38  0.009  0.000  0.000  0.009
   39  0.072  0.000  0.000  0.072
   40  0.065  0.000  0.000  0.065
   41  0.010  0.000  0.000  0.010
   42  0.009  0.000  0.000  0.009
   43  0.062  0.000  0.000  0.062
   44  0.021  0.000  0.000  0.021
   45  0.013  0.000  0.000  0.013
   46  0.013  0.000  0.000  0.013
   47  0.019  0.000  0.000  0.019
   48  0.009  0.000  0.000  0.009
   49  0.064  0.000  0.000  0.064
   50  0.014  0.000  0.000  0.014
   51  0.020  0.000  0.000  0.020
   52  0.063  0.000  0.000  0.063
   53  0.011  0.000  0.000  0.011
   54  0.020  0.000  0.000  0.020
   55  0.013  0.000  0.000  0.013
   56  0.009  0.000  0.000  0.009
   57  0.013  0.000  0.000  0.013
   58  0.064  0.000  0.000  0.064
   59  0.021  0.000  0.000  0.021
   60  0.062  0.000  0.000  0.062
   61  0.019  0.000  0.000  0.019
   62  0.010  0.000  0.000  0.010
   63  0.013  0.000  0.000  0.013
tot    0.755  0.012  0.001  0.767
 
band     8 # energy  -13.25502414 # occ.  1.00000000
 
ion      s      p      d    tot
    1  0.000  0.000  0.000  0.001
    2  0.000  0.001  0.000  0.001
    3  0.000  0.001  0.000  0.001
    4  0.000  0.000  0.000  0.001
    5  0.000  0.000  0.000  0.001
    6  0.000  0.001  0.000  0.001
    7  0.000  0.001  0.000  0.001
    8  0.000  0.000  0.000  0.001
    9  0.000  0.000  0.000  0.001
   10  0.000  0.000  0.000  0.001
   11  0.000  0.000  0.000  0.001
   12  0.000  0.001  0.000  0.001
   13  0.000  0.001  0.000  0.001
   14  0.000  0.000  0.000  0.001
   15  0.000  0.000  0.000  0.001
   16  0.000  0.000  0.000  0.001
   17  0.000  0.000  0.000  0.001
   18  0.000  0.000  0.000  0.001
   19  0.000  0.001  0.000  0.001
   20  0.000  0.001  0.000  0.001
   21  0.000  0.001  0.000  0.001
   22  0.000  0.001  0.000  0.001
   23  0.000  0.000  0.000  0.001
   24  0.000  0.000  0.000  0.001
   25  0.000  0.000  0.000  0.001
   26  0.000  0.001  0.000  0.001
   27  0.000  0.000  0.000  0.001
   28  0.000  0.001  0.000  0.001
   29  0.000  0.001  0.000  0.001
   30  0.000  0.000  0.000  0.001
   31  0.000  0.001  0.000  0.001
   32  0.000  0.000  0.000  0.001
   33  0.029  0.000  0.000  0.029
   34  0.028  0.000  0.000  0.028
   35  0.029  0.000  0.000  0.029
   36  0.027  0.000  0.000  0.027
   37  0.030  0.000  0.000  0.030
   38  0.031  0.000  0.000  0.031
   39  0.011  0.000  0.000  0.011
   40  0.037  0.000  0.000  0.037
   41  0.024  0.000  0.000  0.024
   42  0.021  0.000  0.000  0.021
   43  0.030  0.000  0.000  0.030
   44  0.026  0.000  0.000  0.026
   45  0.011  0.000  0.000  0.011
   46  0.012  0.000  0.000  0.012
   47  0.027  0.000  0.000  0.027
   48  0.020  0.000  0.000  0.020
   49  0.034  0.000  0.000  0.034
   50  0.013  0.000  0.000  0.013
   51  0.026  0.000  0.000  0.026
   52  0.033  0.000  0.000  0.033
   53  0.026  0.000  0.000  0.026
   54  0.027  0.000  0.000  0.027
   55  0.011  0.000  0.000  0.011
   56  0.021  0.000  0.000  0.021
   57  0.013  0.000  0.000  0.013
   58  0.035  0.000  0.000  0.035
   59  0.026  0.000  0.000  0.026
   60  0.029  0.000  0.000  0.029
   61  0.027  0.000  0.000  0.027
   62  0.026  0.000  0.000  0.026
   63  0.012  0.000  0.000  0.012
tot    0.760  0.015  0.000  0.776
 
band     9 # energy  -13.22746794 # occ.  1.00000000
 
ion      s      p      d    tot
    1  0.000  0.000  0.000  0.000
    2  0.000  0.000  0.000  0.001
    3  0.001  0.000  0.000  0.001
    4  0.000  0.000  0.000  0.000
    5  0.000  0.000  0.000  0.000
    6  0.001  0.000  0.000  0.001
    7  0.000  0.000  0.000  0.001
    8  0.000  0.000  0.000  0.000
    9  0.000  0.000  0.000  0.001
   10  0.001  0.001  0.000  0.002
   11  0.000  0.000  0.000  0.001
   12  0.000  0.000  0.000  0.000
   13  0.000  0.000  0.000  0.000
   14  0.000  0.000  0.000  0.001
   15  0.001  0.001  0.000  0.002
   16  0.000  0.000  0.000  0.001
   17  0.000  0.000  0.000  0.000
   18  0.000  0.000  0.000  0.000
   19  0.001  0.000  0.000  0.001
   20  0.000  0.000  0.000  0.001
   21  0.001  0.000  0.000  0.001
   22  0.001  0.000  0.000  0.001
   23  0.000  0.000  0.000  0.000
   24  0.000  0.000  0.000  0.000
   25  0.001  0.000  0.000  0.001
   26  0.000  0.000  0.000  0.000
   27  0.001  0.000  0.000  0.001
   28  0.000  0.000  0.000  0.001
   29  0.000  0.000  0.000  0.001
   30  0.000  0.000  0.000  0.001
   31  0.000  0.000  0.000  0.000
   32  0.000  0.000  0.000  0.001
   33  0.019  0.000  0.000  0.019
   34  0.074  0.000  0.000  0.074
   35  0.014  0.000  0.000  0.014
   36  0.019  0.000  0.000  0.019
   37  0.052  0.000  0.000  0.052
   38  0.013  0.000  0.000  0.013
   39  0.000  0.000  0.000  0.000
   40  0.009  0.000  0.000  0.009
   41  0.038  0.000  0.000  0.038
   42  0.054  0.000  0.000  0.054
   43  0.009  0.000  0.000  0.009
   44  0.007  0.000  0.000  0.007
   45  0.040  0.000  0.000  0.040
   46  0.027  0.000  0.000  0.027
   47  0.007  0.000  0.000  0.007
   48  0.009  0.000  0.000  0.009
   49  0.033  0.000  0.000  0.033
   50  0.017  0.000  0.000  0.017
   51  0.027  0.000  0.000  0.027
   52  0.034  0.000  0.000  0.034
   53  0.027  0.000  0.000  0.027
   54  0.027  0.000  0.000  0.027
   55  0.006  0.000  0.000  0.006
   56  0.055  0.000  0.000  0.055
   57  0.027  0.000  0.000  0.027
   58  0.009  0.000  0.000  0.009
   59  0.007  0.000  0.000  0.007
   60  0.008  0.000  0.000  0.008
   61  0.007  0.000  0.000  0.007
   62  0.039  0.000  0.000  0.039
   63  0.039  0.000  0.000  0.039
tot    0.768  0.009  0.003  0.779
 
band    10 # energy  -13.22652491 # occ.  1.00000000
 
ion      s      p      d    tot
    1  0.000  0.000  0.000  0.001
    2  0.000  0.000  0.000  0.001
    3  0.000  0.000  0.000  0.001
    4  0.000  0.000  0.000  0.001
    5  0.000  0.000  0.000  0.001
    6  0.000  0.000  0.000  0.001
    7  0.001  0.000  0.000  0.001
    8  0.000  0.000  0.000  0.001
    9  0.001  0.000  0.000  0.001
   10  0.000  0.000  0.000  0.000
   11  0.001  0.000  0.000  0.001
   12  0.000  0.000  0.000  0.000
   13  0.000  0.000  0.000  0.000
   14  0.001  0.000  0.000  0.001
   15  0.000  0.000  0.000  0.000
   16  0.001  0.000  0.000  0.001
   17  0.000  0.000  0.000  0.001
   18  0.000  0.000  0.000  0.001
   19  0.000  0.000  0.000  0.001
   20  0.001  0.000  0.000  0.001
   21  0.000  0.000  0.000  0.001
   22  0.000  0.000  0.000  0.001
   23  0.000  0.000  0.000  0.001
   24  0.000  0.000  0.000  0.001
   25  0.000  0.000  0.000  0.000
   26  0.001  0.000  0.000  0.001
   27  0.000  0.000  0.000  0.000
   28  0.001  0.000  0.000  0.001
   29  0.001  0.000  0.000  0.001
   30  0.000  0.000  0.000  0.000
   31  0.001  0.000  0.000  0.001
   32  0.000  0.000  0.000  0.000
   33  0.054  0.000  0.000  0.054
   34  0.002  0.000  0.000  0.003
   35  0.040  0.000  0.000  0.040
   36  0.056  0.000  0.000  0.056
   37  0.001  0.000  0.000  0.001
   38  0.038  0.000  0.000  0.038
   39  0.000  0.000  0.000  0.000
   40  0.022  0.000  0.000  0.022
   41  0.036  0.000  0.000  0.037
   42  0.021  0.000  0.000  0.021
   43  0.027  0.000  0.000  0.027
   44  0.023  0.000  0.000  0.023
   45  0.014  0.000  0.000  0.015
   46  0.025  0.000  0.000  0.025
   47  0.017  0.000  0.000  0.017
   48  0.064  0.000  0.000  0.064
   49  0.001  0.000  0.000  0.001
   50  0.034  0.000  0.000  0.034
   51  0.001  0.000  0.000  0.001
   52  0.001  0.000  0.000  0.001
   53  0.046  0.000  0.000  0.046
   54  0.000  0.000  0.000  0.000
   55  0.048  0.000  0.000  0.048
   56  0.019  0.000  0.000  0.019
   57  0.023  0.000  0.000  0.024
   58  0.022  0.000  0.000  0.022
   59  0.023  0.000  0.000  0.023
   60  0.028  0.000  0.000  0.028
   61  0.019  0.000  0.000  0.019
   62  0.035  0.000  0.000  0.035
   63  0.013  0.000  0.000  0.013
tot    0.767  0.009  0.003  0.779
 
band    11 # energy  -13.18064686 # occ.  1.00000000
 
ion      s      p      d    tot
    1  0.000  0.000  0.000  0.001
    2  0.000  0.000  0.000  0.000
    3  0.000  0.000  0.000  0.000
    4  0.001  0.000  0.000  0.001
    5  0.000  0.000  0.000  0.001
    6  0.000  0.000  0.000  0.000
    7  0.000  0.000  0.000  0.000
    8  0.001  0.000  0.000  0.001
    9  0.000  0.000  0.000  0.001
   10  0.000  0.000  0.000  0.001
   11  0.000  0.000  0.000  0.001
   12  0.001  0.000  0.000  0.001
   13  0.001  0.000  0.000  0.001
   14  0.000  0.000  0.000  0.001
   15  0.000  0.000  0.000  0.000
   16  0.000  0.000  0.000  0.000
   17  0.000  0.000  0.000  0.001
   18  0.000  0.000  0.000  0.001
   19  0.000  0.000  0.000  0.000
   20  0.000  0.000  0.000  0.000
   21  0.000  0.000  0.000  0.000
   22  0.000  0.000  0.000  0.000
   23  0.001  0.000  0.000  0.001
   24  0.001  0.000  0.000  0.001
   25  0.000  0.000  0.000  0.001
   26  0.000  0.000  0.000  0.000
   27  0.000  0.000  0.000  0.001
   28  0.000  0.000  0.000  0.000
   29  0.000  0.000  0.000  0.000
   30  0.001  0.000  0.000  0.001
   31  0.000  0.000  0.000  0.000
   32  0.001  0.000  0.000  0.001
   33  0.017  0.000  0.000  0.017
   34  0.016  0.000  0.000  0.016
   35  0.005  0.000  0.000  0.005
   36  0.016  0.000  0.000  0.016
   37  0.005  0.000  0.000  0.005
   38  0.005  0.000  0.000  0.005
   39  0.107  0.000  0.000  0.107
   40  0.012  0.000  0.000  0.012
   41  0.042  0.000  0.000  0.042
   42  0.042  0.000  0.000  0.042
   43  0.010  0.000  0.000  0.010
   44  0.038  0.000  0.000  0.038
   45  0.006  0.000  0.000  0.006
   46  0.005  0.000  0.000  0.005
   47  0.040  0.000  0.000  0.040
   48  0.044  0.000  0.000  0.044
   49  0.011  0.000  0.000  0.011
   50  0.005  0.000  0.000  0.005
   51  0.040  0.000  0.000  0.040
   52  0.011  0.000  0.000  0.011
   53  0.040  0.000  0.000  0.040
   54  0.039  0.000  0.000  0.039
   55  0.007  0.000  0.000  0.007
   56  0.043  0.000  0.000  0.043
   57  0.005  0.000  0.000  0.005
   58  0.011  0.000  0.000  0.011
   59  0.039  0.000  0.000  0.040
   60  0.010  0.000  0.000  0.010
   61  0.041  0.000  0.000  0.041
   62  0.041  0.000  0.000  0.041
   63  0.006  0.000  0.000  0.006
tot    0.769  0.010  0.003  0.782
 
band    12 # energy  -13.07312025 # occ.  1.00000000
 
ion      s      p      d    tot
    1  0.000  0.000  0.000  0.001
    2  0.000  0.001  0.000  0.001
    3  0.000  0.001  0.000  0.001
    4  0.000  0.000  0.000  0.000
    5  0.000  0.001  0.000  0.001
    6  0.000  0.001  0.000  0.001
    7  0.000  0.001  0.000  0.001
    8  0.000  0.000  0.000  0.000
    9  0.000  0.000  0.000  0.000
   10  0.001  0.000  0.000  0.001
   11  0.001  0.000  0.000  0.001
   12  0.000  0.000  0.000  0.000
   13  0.000  0.000  0.000  0.000
   14  0.001  0.000  0.000  0.001
   15  0.001  0.000  0.000  0.001
   16  0.000  0.000  0.000  0.000
   17  0.000  0.000  0.000  0.001
   18  0.000  0.000  0.000  0.001
   19  0.000  0.000  0.000  0.000
   20  0.000  0.000  0.000  0.000
   21  0.000  0.000  0.000  0.001
   22  0.000  0.000  0.000  0.001
   23  0.000  0.000  0.000  0.001
   24  0.000  0.000  0.000  0.001
   25  0.000  0.000  0.000  0.001
   26  0.000  0.000  0.000  0.001
   27  0.000  0.001  0.000  0.001
   28  0.000  0.000  0.000  0.001
   29  0.000  0.001  0.000  0.001
   30  0.000  0.000  0.000  0.000
   31  0.000  0.001  0.000  0.001
   32  0.000  0.000  0.000  0.000
   33  0.105  0.000  0.000  0.105
   34  0.082  0.000  0.000  0.082
   35  0.001  0.000  0.000  0.001
   36  0.001  0.000  0.000  0.001
   37  0.081  0.000  0.000  0.081
   38  0.103  0.000  0.000  0.103
   39  0.000  0.000  0.000  0.000
   40  0.001  0.000  0.000  0.001
   41  0.000  0.000  0.000  0.000
   42  0.003  0.000  0.000  0.003
   43  0.001  0.000  0.000  0.001
   44  0.000  0.000  0.000  0.000
   45  0.001  0.000  0.000  0.001
   46  0.001  0.000  0.000  0.001
   47  0.000  0.000  0.000  0.000
   48  0.022  0.000  0.000  0.022
   49  0.042  0.000  0.000  0.042
   50  0.015  0.000  0.000  0.015
   51  0.007  0.000  0.000  0.008
   52  0.033  0.000  0.000  0.033
   53  0.032  0.000  0.000  0.032
   54  0.010  0.000  0.000  0.011
   55  0.011  0.000  0.000  0.011
   56  0.029  0.000  0.000  0.029
   57  0.019  0.000  0.000  0.019
   58  0.053  0.000  0.000  0.053
   59  0.007  0.000  0.000  0.007
   60  0.042  0.000  0.000  0.042
   61  0.012  0.000  0.000  0.012
   62  0.042  0.000  0.000  0.042
   63  0.012  0.000  0.000  0.012
tot    0.774  0.013  0.002  0.789
 
band    13 # energy  -13.07196055 # occ.  1.00000000
 
ion      s      p      d    tot
    1  0.000  0.000  0.000  0.001
    2  0.000  0.000  0.000  0.000
    3  0.000  0.000  0.000  0.000
    4  0.000  0.000  0.000  0.001
    5  0.000  0.000  0.000  0.001
    6  0.000  0.000  0.000  0.001
    7  0.000  0.000  0.000  0.000
    8  0.000  0.000  0.000  0.001
    9  0.001  0.000  0.000  0.001
   10  0.000  0.000  0.000  0.000
   11  0.000  0.000  0.000  0.000
   12  0.000  0.000  0.000  0.000
   13  0.000  0.000  0.000  0.000
   14  0.000  0.000  0.000  0.000
   15  0.000  0.000  0.000  0.000
   16  0.001  0.000  0.000  0.001
   17  0.000  0.000  0.000  0.001
   18  0.000  0.001  0.000  0.001
   19  0.000  0.001  0.000  0.001
   20  0.000  0.001  0.000  0.001
   21  0.000  0.001  0.000  0.001
   22  0.000  0.001  0.000  0.001
   23  0.000  0.000  0.000  0.000
   24  0.000  0.000  0.000  0.000
   25  0.000  0.001  0.000  0.001
   26  0.000  0.001  0.000  0.001
   27  0.000  0.000  0.000  0.001
   28  0.000  0.001  0.000  0.001
   29  0.000  0.001  0.000  0.001
   30  0.000  0.000  0.000  0.000
   31  0.000  0.001  0.000  0.001
   32  0.000  0.000  0.000  0.000
   33  0.023  0.000  0.000  0.023
   34  0.044  0.000  0.000  0.044
   35  0.121  0.000  0.000  0.121
   36  0.124  0.000  0.000  0.124
   37  0.041  0.000  0.000  0.041
   38  0.022  0.000  0.000  0.022
   39  0.000  0.000  0.000  0.000
   40  0.059  0.000  0.000  0.059
   41  0.044  0.000  0.000  0.044
   42  0.037  0.000  0.000  0.037
   43  0.056  0.000  0.000  0.056
   44  0.012  0.000  0.000  0.012
   45  0.018  0.000  0.000  0.018
   46  0.020  0.000  0.000  0.020
   47  0.014  0.000  0.000  0.014
   48  0.011  0.000  0.000  0.011
   49  0.017  0.000  0.000  0.017
   50  0.008  0.000  0.000  0.008
   51  0.004  0.000  0.000  0.004
   52  0.022  0.000  0.000  0.022
   53  0.018  0.000  0.000  0.018
   54  0.004  0.000  0.000  0.004
   55  0.005  0.000  0.000  0.005
   56  0.009  0.000  0.000  0.009
   57  0.002  0.000  0.000  0.002
   58  0.009  0.000  0.000  0.009
   59  0.002  0.000  0.000  0.002
   60  0.009  0.000  0.000  0.009
   61  0.003  0.000  0.000  0.003
   62  0.005  0.000  0.000  0.006
   63  0.005  0.000  0.000  0.005
tot    0.774  0.013  0.002  0.789
 
band    14 # energy  -13.06458944 # occ.  1.00000000
 
ion      s      p      d    tot
    1  0.000  0.000  0.000  0.000
    2  0.000  0.000  0.000  0.001
    3  0.000  0.000  0.000  0.001
    4  0.000  0.000  0.000  0.000
    5  0.000  0.000  0.000  0.000
    6  0.000  0.000  0.000  0.001
    7  0.000  0.000  0.000  0.001
    8  0.000  0.000  0.000  0.000