unknown system                          
           1
     8.493727    0.000000    0.000000
     0.000000    8.493727    0.000000
     0.000000    0.000000    8.493727
   Mg   O 
  32  31
Direct configuration=     1
   0.99717647  0.99976743  0.99982558
   0.99917799  0.99932330  0.50029630
   0.99937261  0.49973985  0.99967190
   0.99971102  0.49939327  0.49973437
   0.50268626  0.99978173  0.00016586
   0.50048953  0.99953643  0.50011245
   0.50067161  0.50011141  0.99993121
   0.50008773  0.49982033  0.49987843
   0.00027634  0.24959429  0.24982440
   0.00037664  0.24959612  0.74985081
   0.99945402  0.74960311  0.24992655
   0.99959294  0.74954551  0.74993776
   0.49993046  0.24977530  0.25009894
   0.50034672  0.24977359  0.74994569
   0.49949211  0.74995530  0.24998365
   0.49983558  0.74991486  0.75023750
   0.24976595  0.99965049  0.25255381
   0.25006849  0.99958553  0.74751072
   0.24976510  0.49943991  0.25040578
   0.25011235  0.49944127  0.74925832
   0.74994656  0.00005995  0.25103096
   0.74983388  0.99997869  0.74931008
   0.74968850  0.49959463  0.25012086
   0.74993784  0.49954863  0.74969819
   0.25014861  0.25197251  0.99994938
   0.25018791  0.25015441  0.49997338
   0.24970129  0.74727821  0.00000135
   0.24947388  0.74870881  0.49993534
   0.75012320  0.25095251  0.99998114
   0.75017774  0.25009024  0.49980692
   0.74983055  0.74928232  0.00006046
   0.74939764  0.74956046  0.49986311
   0.24983189  0.99922812  0.50015142
   0.25006349  0.49977967  0.99977850
   0.24993636  0.49943061  0.49981186
   0.74998577  0.00028743  0.00022916
   0.74983760  0.99988188  0.50014419
   0.74994149  0.49996882  0.99995304
   0.74984067  0.49969801  0.49984514
   0.25006911  0.25028955  0.25074809
   0.25046298  0.25042856  0.74903124
   0.24935501  0.74878215  0.25078804
   0.24974663  0.74872195  0.74915527
   0.75012514  0.24992176  0.25004004
   0.75019300  0.24985491  0.74980992
   0.74956052  0.74977053  0.25006343
   0.74966542  0.74973877  0.74989734
   0.99891267  0.99967611  0.25105557
   0.99889279  0.99961206  0.74911548
   0.99977974  0.49939086  0.24974332
   0.99986932  0.49943105  0.74968698
   0.50071044  0.99981002  0.25106095
   0.50105729  0.99973088  0.74924198
   0.49971113  0.49990252  0.24988373
   0.50017693  0.49990591  0.74994813
   0.99942807  0.25074710  0.99970063
   0.00028008  0.24954476  0.49991045
   0.99868451  0.74878695  0.99980163
   0.99933446  0.74923535  0.49996368
   0.50103118  0.25085103  0.00007604
   0.50004374  0.24973423  0.49990017
   0.50084350  0.74920918  0.00016697
   0.49958384  0.74960218  0.49997343
