<?xml version="1.0" encoding="ISO-8859-1"?>
<modeling>
 <generator>
  <i name="program" type="string">vasp </i>
  <i name="version" type="string">5.4.4.18Apr17-6-g9f103f2a35  </i>
  <i name="subversion" type="string">(build Apr 25 2017 10:54:42) gamma-only         parallel </i>
  <i name="platform" type="string">LinuxIFC </i>
  <i name="date" type="string">2020 05 21 </i>
  <i name="time" type="string">17:53:37 </i>
 </generator>
 <incar>
  <i type="string" name="PREC">normal</i>
  <i type="string" name="ALGO">  Normal</i>
  <i type="int" name="ISPIN">     2</i>
  <i type="int" name="NELM">   100</i>
  <i type="int" name="IBRION">     2</i>
  <i name="EDIFF">      0.00001000</i>
  <i name="EDIFFG">     -0.03000000</i>
  <i type="int" name="NSW">    50</i>
  <i type="int" name="ISIF">     2</i>
  <i name="ENCUT">    400.00000000</i>
  <i type="string" name="LREAL">  Auto</i>
  <i type="int" name="ISMEAR">     0</i>
  <i name="SIGMA">      0.10000000</i>
  <i type="logical" name="LWAVE"> F  </i>
  <i type="logical" name="LCHARG"> F  </i>
  <i type="int" name="LORBIT">    12</i>
  <i type="logical" name="LASPH"> T  </i>
  <v type="int" name="KPOINT_BSE">    -1     0     0     0</v>
  <i type="int" name="NELM">   100</i>
  <i type="logical" name="LASPH"> T  </i>
 </incar>
 <structure name="primitive_cell" >
  <crystal>
   <varray name="basis" >
    <v>       4.24689400       0.00000000       0.00000000 </v>
    <v>       0.00000000       4.24689400       0.00000000 </v>
    <v>       0.00000000       0.00000000       4.24689400 </v>
   </varray>
   <i name="volume">     76.59744160 </i>
   <varray name="rec_basis" >
    <v>       0.23546620       0.00000000       0.00000000 </v>
    <v>       0.00000000       0.23546620       0.00000000 </v>
    <v>       0.00000000       0.00000000       0.23546620 </v>
   </varray>
  </crystal>
  <varray name="positions" >
   <v>       0.00518962      -0.01649221      -0.00548625 </v>
   <v>       0.00834653       0.48487145      -0.00588774 </v>
   <v>       0.00137968      -0.01706209       0.49533603 </v>
   <v>      -0.49410546       0.48282060      -0.00595797 </v>
   <v>      -0.49596505      -0.01785008       0.49449418 </v>
   <v>       0.00472830       0.48279400       0.49429298 </v>
   <v>      -0.49543862       0.48111031       0.49338778 </v>
  </varray>
 </structure>
 <varray name="primitive_index" >
  <v type="int" >        1 </v>
  <v type="int" >        7 </v>
  <v type="int" >        6 </v>
  <v type="int" >        4 </v>
  <v type="int" >        3 </v>
  <v type="int" >        2 </v>
  <v type="int" >        5 </v>
 </varray>
 <kpoints>
  <generation param="Gamma">
   <v type="int" name="divisions">       1        1        1 </v>
   <v name="usershift">      0.00000000       0.00000000       0.00000000 </v>
   <v name="genvec1">      1.00000000       0.00000000       0.00000000 </v>
   <v name="genvec2">      0.00000000       1.00000000       0.00000000 </v>
   <v name="genvec3">      0.00000000       0.00000000       1.00000000 </v>
   <v name="shift">      0.00000000       0.00000000       0.00000000 </v>
  </generation>
  <varray name="kpointlist" >
   <v>       0.00000000       0.00000000       0.00000000 </v>
  </varray>
  <varray name="weights" >
   <v>       1.00000000 </v>
  </varray>
 </kpoints>
 <parameters>
  <separator name="general" >
   <i type="string" name="SYSTEM">unknown system</i>
   <i type="logical" name="LCOMPAT"> F  </i>
  </separator>
  <separator name="electronic" >
   <i type="string" name="PREC">normal</i>
   <i name="ENMAX">    400.00000000</i>
   <i name="ENAUG">    605.39200000</i>
   <i name="EDIFF">      0.00001000</i>
   <i type="int" name="IALGO">    38</i>
   <i type="int" name="IWAVPR">    11</i>
   <i type="int" name="NBANDS">    36</i>
   <i name="NELECT">     26.00000000</i>
   <i type="int" name="TURBO">     0</i>
   <i type="int" name="IRESTART">     0</i>
   <i type="int" name="NREBOOT">     0</i>
   <i type="int" name="NMIN">     0</i>
   <i name="EREF">      0.00000000</i>
   <separator name="electronic smearing" >
    <i type="int" name="ISMEAR">     0</i>
    <i name="SIGMA">      0.10000000</i>
    <i name="KSPACING">      0.50000000</i>
    <i type="logical" name="KGAMMA"> T  </i>
   </separator>
   <separator name="electronic projectors" >
    <i type="logical" name="LREAL"> T  </i>
    <v name="ROPT">     -0.00050000     -0.00050000</v>
    <i type="int" name="LMAXPAW">  -100</i>
    <i type="int" name="LMAXMIX">     2</i>
    <i type="logical" name="NLSPLINE"> F  </i>
   </separator>
   <separator name="electronic startup" >
    <i type="int" name="ISTART">     0</i>
    <i type="int" name="ICHARG">     2</i>
    <i type="int" name="INIWAV">     1</i>
   </separator>
   <separator name="electronic spin" >
    <i type="int" name="ISPIN">     2</i>
    <i type="logical" name="LNONCOLLINEAR"> F  </i>
    <v name="MAGMOM">      1.00000000      1.00000000      1.00000000      1.00000000      1.00000000      1.00000000      1.00000000</v>
    <i name="NUPDOWN">     -1.00000000</i>
    <i type="logical" name="LSORBIT"> F  </i>
    <v name="SAXIS">      0.00000000      0.00000000      1.00000000</v>
    <i type="logical" name="LSPIRAL"> F  </i>
    <v name="QSPIRAL">      0.00000000      0.00000000      0.00000000</v>
    <i type="logical" name="LZEROZ"> F  </i>
   </separator>
   <separator name="electronic exchange-correlation" >
    <i type="logical" name="LASPH"> T  </i>
    <i type="logical" name="LMETAGGA"> F  </i>
   </separator>
   <separator name="electronic convergence" >
    <i type="int" name="NELM">   100</i>
    <i type="int" name="NELMDL">     0</i>
    <i type="int" name="NELMIN">     2</i>
    <i name="ENINI">    400.00000000</i>
    <separator name="electronic convergence detail" >
     <i type="logical" name="LDIAG"> T  </i>
     <i type="logical" name="LSUBROT"> F  </i>
     <i name="WEIMIN">      0.00100000</i>
     <i name="EBREAK">      0.00000007</i>
     <i name="DEPER">      0.30000000</i>
     <i type="int" name="NRMM">     4</i>
     <i name="TIME">      0.40000000</i>
    </separator>
   </separator>
   <separator name="electronic mixer" >
    <i name="AMIX">      0.40000000</i>
    <i name="BMIX">      1.00000000</i>
    <i name="AMIN">      0.10000000</i>
    <i name="AMIX_MAG">      1.60000000</i>
    <i name="BMIX_MAG">      1.00000000</i>
    <separator name="electronic mixer details" >
     <i type="int" name="IMIX">     4</i>
     <i type="logical" name="MIXFIRST"> F  </i>
     <i type="int" name="MAXMIX">   -45</i>
     <i name="WC">    100.00000000</i>
     <i type="int" name="INIMIX">     1</i>
     <i type="int" name="MIXPRE">     1</i>
     <i type="int" name="MREMOVE">     5</i>
    </separator>
   </separator>
   <separator name="electronic dipolcorrection" >
    <i type="logical" name="LDIPOL"> F  </i>
    <i type="logical" name="LMONO"> F  </i>
    <i type="int" name="IDIPOL">     0</i>
    <i name="EPSILON">      1.00000000</i>
    <v name="DIPOL">   -100.00000000   -100.00000000   -100.00000000</v>
    <i name="EFIELD">      0.00000000</i>
   </separator>
  </separator>
  <separator name="grids" >
   <i type="int" name="NGX">    24</i>
   <i type="int" name="NGY">    24</i>
   <i type="int" name="NGZ">    24</i>
   <i type="int" name="NGXF">    48</i>
   <i type="int" name="NGYF">    48</i>
   <i type="int" name="NGZF">    48</i>
   <i type="logical" name="ADDGRID"> F  </i>
  </separator>
  <separator name="ionic" >
   <i type="int" name="NSW">    50</i>
   <i type="int" name="IBRION">     2</i>
   <i type="int" name="MDALGO">     0</i>
   <i type="int" name="ISIF">     2</i>
   <i name="PSTRESS">      0.00000000</i>
   <i name="EDIFFG">     -0.03000000</i>
   <i type="int" name="NFREE">     1</i>
   <i name="POTIM">      0.50000000</i>
   <i name="SMASS">     -3.00000000</i>
   <i name="SCALEE">      1.00000000</i>
  </separator>
  <separator name="ionic md" >
   <i name="TEBEG">      0.00010000</i>
   <i name="TEEND">      0.00010000</i>
   <i type="int" name="NBLOCK">     1</i>
   <i type="int" name="KBLOCK">    50</i>
   <i type="int" name="NPACO">   256</i>
   <i name="APACO">     16.00000000</i>
  </separator>
  <separator name="symmetry" >
   <i type="int" name="ISYM">     2</i>
   <i name="SYMPREC">      0.00001000</i>
  </separator>
  <separator name="dos" >
   <i type="int" name="LORBIT">    12</i>
   <v name="RWIGS">     -1.00000000     -1.00000000</v>
   <i type="int" name="NEDOS">   301</i>
   <i name="EMIN">     10.00000000</i>
   <i name="EMAX">    -10.00000000</i>
   <i name="EFERMI">      0.00000000</i>
  </separator>
  <separator name="writing" >
   <i type="int" name="NWRITE">     2</i>
   <i type="logical" name="LWAVE"> F  </i>
   <i type="logical" name="LDOWNSAMPLE"> F  </i>
   <i type="logical" name="LCHARG"> F  </i>
   <i type="logical" name="LPARD"> F  </i>
   <i type="logical" name="LVTOT"> F  </i>
   <i type="logical" name="LVHAR"> F  </i>
   <i type="logical" name="LELF"> F  </i>
   <i type="logical" name="LOPTICS"> F  </i>
   <v name="STM">      0.00000000      0.00000000      0.00000000      0.00000000      0.00000000      0.00000000      0.00000000</v>
  </separator>
  <separator name="performance" >
   <i type="int" name="NPAR">    36</i>
   <i type="int" name="NSIM">     4</i>
   <i type="int" name="NBLK">    -1</i>
   <i type="logical" name="LPLANE"> T  </i>
   <i type="logical" name="LSCALAPACK"> T  </i>
   <i type="logical" name="LSCAAWARE"> F  </i>
   <i type="logical" name="LSCALU"> F  </i>
   <i type="logical" name="LASYNC"> F  </i>
   <i type="logical" name="LORBITALREAL"> F  </i>
  </separator>
  <separator name="miscellaneous" >
   <i type="int" name="IDIOT">     3</i>
   <i type="int" name="ISPECIAL">     0</i>
   <i type="logical" name="LMUSIC"> F  </i>
   <v name="POMASS">     24.30500000     16.00000000</v>
   <v name="DARWINR">      0.00000000      0.00000000</v>
   <v name="DARWINV">      1.00000000      1.00000000</v>
   <i type="logical" name="LCORR"> T  </i>
  </separator>
  <i type="logical" name="GGA_COMPAT"> T  </i>
  <i type="logical" name="LBERRY"> F  </i>
  <i type="int" name="ICORELEVEL">     0</i>
  <i type="logical" name="LDAU"> F  </i>
  <i type="int" name="I_CONSTRAINED_M">     0</i>
  <separator name="electronic exchange-correlation" >
   <i type="string" name="GGA">--</i>
   <i type="int" name="VOSKOWN">     0</i>
   <i type="logical" name="LHFCALC"> F  </i>
   <i type="string" name="PRECFOCK"></i>
   <i type="logical" name="LSYMGRAD"> F  </i>
   <i type="logical" name="LHFONE"> F  </i>
   <i type="logical" name="LRHFCALC"> F  </i>
   <i type="logical" name="LTHOMAS"> F  </i>
   <i type="logical" name="LMODELHF"> F  </i>
   <i name="ENCUT4O">     -1.00000000</i>
   <i type="int" name="EXXOEP">     0</i>
   <i type="int" name="FOURORBIT">     0</i>
   <i name="AEXX">      0.00000000</i>
   <i name="HFALPHA">      0.00000000</i>
   <i name="MCALPHA">      0.00000000</i>
   <i name="ALDAX">      1.00000000</i>
   <i name="AGGAX">      1.00000000</i>
   <i name="ALDAC">      1.00000000</i>
   <i name="AGGAC">      1.00000000</i>
   <i type="int" name="NKREDX">     1</i>
   <i type="int" name="NKREDY">     1</i>
   <i type="int" name="NKREDZ">     1</i>
   <i type="logical" name="SHIFTRED"> F  </i>
   <i type="logical" name="ODDONLY"> F  </i>
   <i type="logical" name="EVENONLY"> F  </i>
   <i type="int" name="LMAXFOCK">     0</i>
   <i type="int" name="NMAXFOCKAE">     0</i>
   <i type="logical" name="LFOCKAEDFT"> F  </i>
   <i name="HFSCREEN">      0.00000000</i>
   <i name="HFSCREENC">      0.00000000</i>
   <i type="int" name="NBANDSGWLOW">     0</i>
  </separator>
  <separator name="vdW DFT" >
   <i type="logical" name="LUSE_VDW"> F  </i>
   <i name="Zab_VDW">     -0.84910000</i>
   <i name="PARAM1">      0.12340000</i>
   <i name="PARAM2">      1.00000000</i>
   <i name="PARAM3">      0.00000000</i>
  </separator>
  <separator name="model GW" >
   <i type="int" name="MODEL_GW">     0</i>
   <i name="MODEL_EPS0">      6.56549499</i>
   <i name="MODEL_ALPHA">      1.00000000</i>
  </separator>
  <separator name="linear response parameters" >
   <i type="logical" name="LEPSILON"> F  </i>
   <i type="logical" name="LRPA"> F  </i>
   <i type="logical" name="LNABLA"> F  </i>
   <i type="logical" name="LVEL"> F  </i>
   <i type="int" name="KINTER">     0</i>
   <i name="CSHIFT">      0.10000000</i>
   <i name="OMEGAMAX">     -1.00000000</i>
   <i name="DEG_THRESHOLD">      0.00200000</i>
   <i name="RTIME">     -0.10000000</i>
   <i name="WPLASMAI">      0.00000000</i>
   <v name="DFIELD">      0.00000000      0.00000000      0.00000000</v>
   <v name="WPLASMA">      0.00000000      0.00000000      0.00000000      0.00000000      0.00000000      0.00000000      0.00000000      0.00000000      0.00000000</v>
  </separator>
  <separator name="orbital magnetization" >
   <i type="logical" name="NUCIND"> F  </i>
   <v name="MAGPOS">      0.00000000      0.00000000      0.00000000</v>
   <i type="logical" name="LNICSALL"> T  </i>
   <i type="logical" name="ORBITALMAG"> F  </i>
   <i type="logical" name="LMAGBLOCH"> F  </i>
   <i type="logical" name="LCHIMAG"> F  </i>
   <i type="logical" name="LGAUGE"> T  </i>
   <i type="int" name="MAGATOM">     0</i>
   <v name="MAGDIPOL">      0.00000000      0.00000000      0.00000000</v>
   <v name="AVECCONST">      0.00000000      0.00000000      0.00000000</v>
  </separator>
  <separator name="response functions" >
   <i type="logical" name="LADDER"> F  </i>
   <i type="logical" name="LRPAFORCE"> F  </i>
   <i type="logical" name="LFXC"> F  </i>
   <i type="logical" name="LHARTREE"> T  </i>
   <i type="int" name="IBSE">     0</i>
   <v type="int" name="KPOINT">    -1     0     0     0</v>
   <i type="logical" name="LTCTE"> F  </i>
   <i type="logical" name="LTETE"> F  </i>
   <i type="logical" name="LTRIPLET"> F  </i>
   <i type="logical" name="LFXCEPS"> F  </i>
   <i type="logical" name="LFXHEG"> F  </i>
   <i type="int" name="NATURALO">     2</i>
   <i type="logical" name="L2ORDER"> F  </i>
   <i type="logical" name="LMP2LT"> F  </i>
   <i type="logical" name="LUSEW"> F  </i>
   <i name="ENCUTGW">     -2.00000000</i>
   <i name="ENCUTGWSOFT">     -2.00000000</i>
   <i name="ENCUTLF">     -1.00000000</i>
   <i type="int" name="LMAXMP2">    -1</i>
   <i name="SCISSOR">      0.00000000</i>
   <i type="int" name="NOMEGA">     0</i>
   <i type="int" name="NOMEGAR">     0</i>
   <i type="int" name="NBANDSGW">    -1</i>
   <i type="int" name="NBANDSO">    -1</i>
   <i type="int" name="NBANDSV">    -1</i>
   <i type="int" name="NELM">   100</i>
   <i type="int" name="NELMHF">     1</i>
   <i type="int" name="DIM">     3</i>
   <i type="int" name="ANTIRES">     0</i>
   <i name="OMEGAMAX">    -30.00000000</i>
   <i name="OMEGAMIN">    -30.00000000</i>
   <i name="OMEGATL">   -200.00000000</i>
   <i type="int" name="OMEGAGRID">   140</i>
   <i name="CSHIFT">     -0.10000000</i>
   <i type="logical" name="SELFENERGY"> F  </i>
   <i type="logical" name="LSPECTRAL"> F  </i>
   <i type="logical" name="LSPECTRALGW"> F  </i>
   <i type="logical" name="LSINGLES"> F  </i>
   <i type="logical" name="LFERMIGW"> F  </i>
   <i type="logical" name="ODDONLYGW"> F  </i>
   <i type="logical" name="EVENONLYGW"> F  </i>
   <i type="int" name="NKREDLFX">     1</i>
   <i type="int" name="NKREDLFY">     1</i>
   <i type="int" name="NKREDLFZ">     1</i>
   <i type="int" name="MAXMEM">  2800</i>
   <i type="int" name="TELESCOPE">     0</i>
   <i type="int" name="TAUPAR">     1</i>
   <i type="int" name="OMEGAPAR">    -1</i>
   <i name="LAMBDA">      1.00000000</i>
  </separator>
  <separator name="External order field" >
   <i name="OFIELD_KAPPA">      0.00000000</i>
   <v name="OFIELD_K">      0.00000000      0.00000000      0.00000000</v>
   <i name="OFIELD_Q6_NEAR">      0.00000000</i>
   <i name="OFIELD_Q6_FAR">      0.00000000</i>
   <i name="OFIELD_A">      0.00000000</i>
  </separator>
 </parameters>
 <atominfo>
  <atoms>       7 </atoms>
  <types>       2 </types>
  <array name="atoms" >
   <dimension dim="1">ion</dimension>
   <field type="string">element</field>
   <field type="int">atomtype</field>
   <set>
    <rc><c>Mg</c><c>   1</c></rc>
    <rc><c>Mg</c><c>   1</c></rc>
    <rc><c>Mg</c><c>   1</c></rc>
    <rc><c>Mg</c><c>   1</c></rc>
    <rc><c>O </c><c>   2</c></rc>
    <rc><c>O </c><c>   2</c></rc>
    <rc><c>O </c><c>   2</c></rc>
   </set>
  </array>
  <array name="atomtypes" >
   <dimension dim="1">type</dimension>
   <field type="int">atomspertype</field>
   <field type="string">element</field>
   <field>mass</field>
   <field>valence</field>
   <field type="string">pseudopotential</field>
   <set>
    <rc><c>   4</c><c>Mg</c><c>     24.30500000</c><c>      2.00000000</c><c>  PAW_PBE Mg 13Apr2007                  </c></rc>
    <rc><c>   3</c><c>O </c><c>     16.00000000</c><c>      6.00000000</c><c>  PAW_PBE O 08Apr2002                   </c></rc>
   </set>
  </array>
 </atominfo>
 <structure name="initialpos" >
  <crystal>
   <varray name="basis" >
    <v>       4.24689400       0.00000000       0.00000000 </v>
    <v>       0.00000000       4.24689400       0.00000000 </v>
    <v>       0.00000000       0.00000000       4.24689400 </v>
   </varray>
   <i name="volume">     76.59744160 </i>
   <varray name="rec_basis" >
    <v>       0.23546620       0.00000000       0.00000000 </v>
    <v>       0.00000000       0.23546620       0.00000000 </v>
    <v>       0.00000000       0.00000000       0.23546620 </v>
   </varray>
  </crystal>
  <varray name="positions" >
   <v>       0.00518962       0.98350779       0.99451375 </v>
   <v>       0.00472830       0.48279400       0.49429298 </v>
   <v>       0.50403495       0.98214992       0.49449418 </v>
   <v>       0.50589454       0.48282060       0.99404203 </v>
   <v>       0.50456138       0.48111031       0.49338778 </v>
   <v>       0.00137968       0.98293791       0.49533603 </v>
   <v>       0.00834653       0.48487145       0.99411226 </v>
  </varray>
 </structure>
 <calculation>
  <scstep>
   <time name="dav">    0.06    0.07</time>
   <time name="total">    0.47    0.49</time>
   <energy>
    <i name="alphaZ">     54.13633617 </i>
    <i name="ewald">   -990.19393258 </i>
    <i name="hartreedc">   -450.97935647 </i>
    <i name="XCdc">   -109.08278772 </i>
    <i name="pawpsdc">   1299.93325121 </i>
    <i name="pawaedc">  -1097.86421582 </i>
    <i name="eentropy">     -0.00154319 </i>
    <i name="bandstr">     53.38907959 </i>
    <i name="atom">   1388.93668197 </i>
    <i name="e_fr_energy">    148.27351316 </i>
    <i name="e_wo_entrp">    148.27505635 </i>
    <i name="e_0_energy">    148.27428475 </i>
   </energy>
  </scstep>
  <scstep>
   <time name="dav">    0.05    0.06</time>
   <time name="total">    0.05    0.06</time>
   <energy>
    <i name="e_fr_energy">    -37.17053851 </i>
    <i name="e_wo_entrp">    -37.17053851 </i>
    <i name="e_0_energy">    -37.17053851 </i>
   </energy>
  </scstep>
  <scstep>
   <time name="dav">    0.04    0.03</time>
   <time name="total">    0.04    0.04</time>
   <energy>
    <i name="e_fr_energy">    -38.84431881 </i>
    <i name="e_wo_entrp">    -38.84431881 </i>
    <i name="e_0_energy">    -38.84431881 </i>
   </energy>
  </scstep>
  <scstep>
   <time name="dav">    0.05    0.05</time>
   <time name="total">    0.05    0.05</time>
   <energy>
    <i name="e_fr_energy">    -38.84666416 </i>
    <i name="e_wo_entrp">    -38.84666416 </i>
    <i name="e_0_energy">    -38.84666416 </i>
   </energy>
  </scstep>
  <scstep>
   <time name="dav">    0.02    0.02</time>
   <time name="total">    0.02    0.03</time>
   <energy>
    <i name="e_fr_energy">    -38.84666416 </i>
    <i name="e_wo_entrp">    -38.84666416 </i>
    <i name="e_0_energy">    -38.84666416 </i>
   </energy>
  </scstep>
  <scstep>
   <time name="dav">    0.02    0.02</time>
   <time name="total">    0.43    0.43</time>
   <energy>
    <i name="e_fr_energy">    -34.95858438 </i>
    <i name="e_wo_entrp">    -34.95858438 </i>
    <i name="e_0_energy">    -34.95858438 </i>
   </energy>
  </scstep>
  <scstep>
   <time name="dav">    0.07    0.07</time>
   <time name="total">    0.48    0.48</time>
   <energy>
    <i name="e_fr_energy">    -34.96142062 </i>
    <i name="e_wo_entrp">    -34.96142062 </i>
    <i name="e_0_energy">    -34.96142062 </i>
   </energy>
  </scstep>
  <scstep>
   <time name="dav">    0.04    0.04</time>
   <time name="total">    0.46    0.46</time>
   <energy>
    <i name="e_fr_energy">    -34.91093682 </i>
    <i name="e_wo_entrp">    -34.91093682 </i>
    <i name="e_0_energy">    -34.91093682 </i>
   </energy>
  </scstep>
  <scstep>
   <time name="dav">    0.06    0.06</time>
   <time name="total">    0.48    0.49</time>
   <energy>
    <i name="e_fr_energy">    -34.91122668 </i>
    <i name="e_wo_entrp">    -34.91122668 </i>
    <i name="e_0_energy">    -34.91122668 </i>
   </energy>
  </scstep>
  <scstep>
   <time name="dav">    0.08    0.09</time>
   <time name="total">    0.49    0.50</time>
   <energy>
    <i name="e_fr_energy">    -34.91074353 </i>
    <i name="e_wo_entrp">    -34.91074353 </i>
    <i name="e_0_energy">    -34.91074353 </i>
   </energy>
  </scstep>
  <scstep>
   <time name="dav">    0.04    0.04</time>
   <time name="total">    0.46    0.46</time>
   <energy>
    <i name="e_fr_energy">    -34.91080609 </i>
    <i name="e_wo_entrp">    -34.91080609 </i>
    <i name="e_0_energy">    -34.91080609 </i>
   </energy>
  </scstep>
  <scstep>
   <time name="dav">    0.04    0.04</time>
   <time name="total">    0.45    0.45</time>
   <energy>
    <i name="e_fr_energy">    -34.91084270 </i>
    <i name="e_wo_entrp">    -34.91084270 </i>
    <i name="e_0_energy">    -34.91084270 </i>
   </energy>
  </scstep>
  <scstep>
   <time name="dav">    0.03    0.03</time>
   <time name="total">    0.44    0.44</time>
   <energy>
    <i name="alphaZ">     54.13633617 </i>
    <i name="ewald">   -990.19393258 </i>
    <i name="hartreedc">   -526.10982402 </i>
    <i name="XCdc">   -104.97196297 </i>
    <i name="pawpsdc">   1752.54239942 </i>
    <i name="pawaedc">  -1551.20667741 </i>
    <i name="eentropy">     -0.00000000 </i>
    <i name="bandstr">    -58.04386417 </i>
    <i name="atom">   1388.93668197 </i>
    <i name="e_fr_energy">    -34.91084360 </i>
    <i name="e_wo_entrp">    -34.91084360 </i>
    <i name="e_0_energy">    -34.91084360 </i>
   </energy>
  </scstep>
  <structure>
   <crystal>
    <varray name="basis" >
     <v>       4.24689400       0.00000000       0.00000000 </v>
     <v>       0.00000000       4.24689400       0.00000000 </v>
     <v>       0.00000000       0.00000000       4.24689400 </v>
    </varray>
    <i name="volume">     76.59744160 </i>
    <varray name="rec_basis" >
     <v>       0.23546620       0.00000000       0.00000000 </v>
     <v>       0.00000000       0.23546620       0.00000000 </v>
     <v>       0.00000000       0.00000000       0.23546620 </v>
    </varray>
   </crystal>
   <varray name="positions" >
    <v>       0.00518962       0.98350779       0.99451375 </v>
    <v>       0.00472830       0.48279400       0.49429298 </v>
    <v>       0.50403495       0.98214992       0.49449418 </v>
    <v>       0.50589454       0.48282060       0.99404203 </v>
    <v>       0.50456138       0.48111031       0.49338778 </v>
    <v>       0.00137968       0.98293791       0.49533603 </v>
    <v>       0.00834653       0.48487145       0.99411226 </v>
   </varray>
  </structure>
  <varray name="forces" >
   <v>      -0.00307406      -0.00777813       0.00166457 </v>
   <v>       0.00307219       0.00151945      -0.00179946 </v>
   <v>       0.00365607       0.00842835      -0.00392483 </v>
   <v>      -0.00745510       0.00239209       0.00210573 </v>
   <v>       0.00617625       0.00886887       0.00343717 </v>
   <v>       0.01866164      -0.00042830      -0.00842132 </v>
   <v>      -0.02103701      -0.01300232       0.00693815 </v>
  </varray>
  <varray name="stress" >
   <v>     100.54167648      -0.09290301      -0.06959150 </v>
   <v>      -0.09290301     100.33844459       0.02791879 </v>
   <v>      -0.06959158       0.02791881     100.23172670 </v>
  </varray>
  <energy>
   <i name="e_fr_energy">    -34.91084360 </i>
   <i name="e_wo_entrp">    -34.91084360 </i>
   <i name="e_0_energy">     -0.00000000 </i>
  </energy>
  <time name="totalsc">    5.18    5.25</time>
  <eigenvalues>
   <array>
    <dimension dim="1">band</dimension>
    <dimension dim="2">kpoint</dimension>
    <dimension dim="3">spin</dimension>
    <field>eigene</field>
    <field>occ</field>
    <set>
     <set comment="spin 1">
      <set comment="kpoint 1">
       <r>  -14.0887    1.0000 </r>
       <r>  -12.8832    1.0000 </r>
       <r>  -12.8828    1.0000 </r>
       <r>   -0.8736    1.0000 </r>
       <r>   -0.8736    1.0000 </r>
       <r>   -0.8732    1.0000 </r>
       <r>    1.3960    1.0000 </r>
       <r>    1.3967    1.0000 </r>
       <r>    1.3970    1.0000 </r>
       <r>    2.2820    1.0000 </r>
       <r>    2.2824    1.0000 </r>
       <r>    2.2831    1.0000 </r>
       <r>    2.4163    1.0000 </r>
       <r>   10.2574    0.0000 </r>
       <r>   11.2792    0.0000 </r>
       <r>   11.2858    0.0000 </r>
       <r>   11.2881    0.0000 </r>
       <r>   11.5890    0.0000 </r>
       <r>   11.5909    0.0000 </r>
       <r>   11.5917    0.0000 </r>
       <r>   12.3127    0.0000 </r>
       <r>   12.3190    0.0000 </r>
       <r>   17.6789    0.0000 </r>
       <r>   18.2714    0.0000 </r>
       <r>   18.2718    0.0000 </r>
       <r>   18.2993    0.0000 </r>
       <r>   18.6663    0.0000 </r>
       <r>   18.6945    0.0000 </r>
       <r>   18.6960    0.0000 </r>
       <r>   21.1312    0.0000 </r>
       <r>   21.1359    0.0000 </r>
       <r>   21.1411    0.0000 </r>
       <r>   21.8037    0.0000 </r>
       <r>   24.0900    0.0000 </r>
       <r>   24.0953    0.0000 </r>
       <r>   25.9426    0.0000 </r>
      </set>
     </set>
     <set comment="spin 2">
      <set comment="kpoint 1">
       <r>  -14.0888    1.0000 </r>
       <r>  -12.8833    1.0000 </r>
       <r>  -12.8828    1.0000 </r>
       <r>   -0.8736    1.0000 </r>
       <r>   -0.8736    1.0000 </r>
       <r>   -0.8733    1.0000 </r>
       <r>    1.3959    1.0000 </r>
       <r>    1.3966    1.0000 </r>
       <r>    1.3969    1.0000 </r>
       <r>    2.2820    1.0000 </r>
       <r>    2.2824    1.0000 </r>
       <r>    2.2831    1.0000 </r>
       <r>    2.4163    1.0000 </r>
       <r>   10.2574    0.0000 </r>
       <r>   11.2793    0.0000 </r>
       <r>   11.2859    0.0000 </r>
       <r>   11.2881    0.0000 </r>
       <r>   11.5891    0.0000 </r>
       <r>   11.5910    0.0000 </r>
       <r>   11.5918    0.0000 </r>
       <r>   12.3126    0.0000 </r>
       <r>   12.3189    0.0000 </r>
       <r>   17.6787    0.0000 </r>
       <r>   18.2714    0.0000 </r>
       <r>   18.2718    0.0000 </r>
       <r>   18.2993    0.0000 </r>
       <r>   18.6664    0.0000 </r>
       <r>   18.6946    0.0000 </r>
       <r>   18.6960    0.0000 </r>
       <r>   21.1311    0.0000 </r>
       <r>   21.1358    0.0000 </r>
       <r>   21.1410    0.0000 </r>
       <r>   21.8039    0.0000 </r>
       <r>   24.0899    0.0000 </r>
       <r>   24.0952    0.0000 </r>
       <r>   25.9420    0.0000 </r>
      </set>
     </set>
    </set>
   </array>
  </eigenvalues>
  <separator name="orbital magnetization" >
   <v name="MAGDIPOLOUT">      0.00000000      0.00000000      0.00000000</v>
  </separator>
  <dos>
   <i name="efermi">      3.00043250 </i>
   <total>
    <array>
     <dimension dim="1">gridpoints</dimension>
     <dimension dim="2">spin</dimension>
     <field>energy</field>
     <field>total</field>
     <field>integrated</field>
     <set>
      <set comment="spin 1">
       <r>   -16.0903     0.0000     0.0000 </r>
       <r>   -15.9436     0.0000     0.0000 </r>
       <r>   -15.7968     0.0000     0.0000 </r>
       <r>   -15.6500     0.0000     0.0000 </r>
       <r>   -15.5032     0.0000     0.0000 </r>
       <r>   -15.3564     0.0000     0.0000 </r>
       <r>   -15.2097     0.0000     0.0000 </r>
       <r>   -15.0629     0.0000     0.0000 </r>
       <r>   -14.9161     0.0000     0.0000 </r>
       <r>   -14.7693     0.0000     0.0000 </r>
       <r>   -14.6225     0.0000     0.0000 </r>
       <r>   -14.4757     0.0000     0.0000 </r>
       <r>   -14.3290     0.0023     0.0003 </r>
       <r>   -14.1822     0.6319     0.0931 </r>
       <r>   -14.0354     4.6426     0.7745 </r>
       <r>   -13.8886     1.5202     0.9977 </r>
       <r>   -13.7418     0.0159     1.0000 </r>
       <r>   -13.5951     0.0000     1.0000 </r>
       <r>   -13.4483     0.0000     1.0000 </r>
       <r>   -13.3015     0.0000     1.0000 </r>
       <r>   -13.1547     0.0008     1.0001 </r>
       <r>   -13.0079     0.5256     1.0773 </r>
       <r>   -12.8611     7.9400     2.2427 </r>
       <r>   -12.7144     5.0429     2.9829 </r>
       <r>   -12.5676     0.1164     3.0000 </r>
       <r>   -12.4208     0.0001     3.0000 </r>
       <r>   -12.2740     0.0000     3.0000 </r>
       <r>   -12.1272     0.0000     3.0000 </r>
       <r>   -11.9805     0.0000     3.0000 </r>
       <r>   -11.8337     0.0000     3.0000 </r>
       <r>   -11.6869     0.0000     3.0000 </r>
       <r>   -11.5401     0.0000     3.0000 </r>
       <r>   -11.3933     0.0000     3.0000 </r>
       <r>   -11.2466     0.0000     3.0000 </r>
       <r>   -11.0998     0.0000     3.0000 </r>
       <r>   -10.9530     0.0000     3.0000 </r>
       <r>   -10.8062     0.0000     3.0000 </r>
       <r>   -10.6594     0.0000     3.0000 </r>
       <r>   -10.5126     0.0000     3.0000 </r>
       <r>   -10.3659     0.0000     3.0000 </r>
       <r>   -10.2191     0.0000     3.0000 </r>
       <r>   -10.0723     0.0000     3.0000 </r>
       <r>    -9.9255     0.0000     3.0000 </r>
       <r>    -9.7787     0.0000     3.0000 </r>
       <r>    -9.6320     0.0000     3.0000 </r>
       <r>    -9.4852     0.0000     3.0000 </r>
       <r>    -9.3384     0.0000     3.0000 </r>
       <r>    -9.1916     0.0000     3.0000 </r>
       <r>    -9.0448     0.0000     3.0000 </r>
       <r>    -8.8980     0.0000     3.0000 </r>
       <r>    -8.7513     0.0000     3.0000 </r>
       <r>    -8.6045     0.0000     3.0000 </r>
       <r>    -8.4577     0.0000     3.0000 </r>
       <r>    -8.3109     0.0000     3.0000 </r>
       <r>    -8.1641     0.0000     3.0000 </r>
       <r>    -8.0174     0.0000     3.0000 </r>
       <r>    -7.8706     0.0000     3.0000 </r>
       <r>    -7.7238     0.0000     3.0000 </r>
       <r>    -7.5770     0.0000     3.0000 </r>
       <r>    -7.4302     0.0000     3.0000 </r>
       <r>    -7.2835     0.0000     3.0000 </r>
       <r>    -7.1367     0.0000     3.0000 </r>
       <r>    -6.9899     0.0000     3.0000 </r>
       <r>    -6.8431     0.0000     3.0000 </r>
       <r>    -6.6963     0.0000     3.0000 </r>
       <r>    -6.5495     0.0000     3.0000 </r>
       <r>    -6.4028     0.0000     3.0000 </r>
       <r>    -6.2560     0.0000     3.0000 </r>
       <r>    -6.1092     0.0000     3.0000 </r>
       <r>    -5.9624     0.0000     3.0000 </r>
       <r>    -5.8156     0.0000     3.0000 </r>
       <r>    -5.6689     0.0000     3.0000 </r>
       <r>    -5.5221     0.0000     3.0000 </r>
       <r>    -5.3753     0.0000     3.0000 </r>
       <r>    -5.2285     0.0000     3.0000 </r>
       <r>    -5.0817     0.0000     3.0000 </r>
       <r>    -4.9349     0.0000     3.0000 </r>
       <r>    -4.7882     0.0000     3.0000 </r>
       <r>    -4.6414     0.0000     3.0000 </r>
       <r>    -4.4946     0.0000     3.0000 </r>
       <r>    -4.3478     0.0000     3.0000 </r>
       <r>    -4.2010     0.0000     3.0000 </r>
       <r>    -4.0543     0.0000     3.0000 </r>
       <r>    -3.9075     0.0000     3.0000 </r>
       <r>    -3.7607     0.0000     3.0000 </r>
       <r>    -3.6139     0.0000     3.0000 </r>
       <r>    -3.4671     0.0000     3.0000 </r>
       <r>    -3.3203     0.0000     3.0000 </r>
       <r>    -3.1736     0.0000     3.0000 </r>
       <r>    -3.0268     0.0000     3.0000 </r>
       <r>    -2.8800     0.0000     3.0000 </r>
       <r>    -2.7332     0.0000     3.0000 </r>
       <r>    -2.5864     0.0000     3.0000 </r>
       <r>    -2.4397     0.0000     3.0000 </r>
       <r>    -2.2929     0.0000     3.0000 </r>
       <r>    -2.1461     0.0000     3.0000 </r>
       <r>    -1.9993     0.0000     3.0000 </r>
       <r>    -1.8525     0.0000     3.0000 </r>
       <r>    -1.7058     0.0000     3.0000 </r>
       <r>    -1.5590     0.0000     3.0000 </r>
       <r>    -1.4122     0.0000     3.0000 </r>
       <r>    -1.2654     0.0000     3.0000 </r>
       <r>    -1.1186     0.0054     3.0008 </r>
       <r>    -0.9718     1.6717     3.2462 </r>
       <r>    -0.8251    13.7161     5.2594 </r>
       <r>    -0.6783     4.9863     5.9913 </r>
       <r>    -0.5315     0.0590     6.0000 </r>
       <r>    -0.3847     0.0000     6.0000 </r>
       <r>    -0.2379     0.0000     6.0000 </r>
       <r>    -0.0912     0.0000     6.0000 </r>
       <r>     0.0556     0.0000     6.0000 </r>
       <r>     0.2024     0.0000     6.0000 </r>
       <r>     0.3492     0.0000     6.0000 </r>
       <r>     0.4960     0.0000     6.0000 </r>
       <r>     0.6428     0.0000     6.0000 </r>
       <r>     0.7895     0.0000     6.0000 </r>
       <r>     0.9363     0.0000     6.0000 </r>
       <r>     1.0831     0.0001     6.0000 </r>
       <r>     1.2299     0.1882     6.0276 </r>
       <r>     1.3767     7.7674     7.1677 </r>
       <r>     1.5234    11.7396     8.8909 </r>
       <r>     1.6702     0.7422     8.9998 </r>
       <r>     1.8170     0.0011     9.0000 </r>
       <r>     1.9638     0.0001     9.0000 </r>
       <r>     2.1106     0.1535     9.0225 </r>
       <r>     2.2574     7.3060    10.0949 </r>
       <r>     2.4041    15.0480    12.3037 </r>
       <r>     2.5509     4.5486    12.9713 </r>
       <r>     2.6977     0.1950    13.0000 </r>
       <r>     2.8445     0.0002    13.0000 </r>
       <r>     2.9913     0.0000    13.0000 </r>
       <r>     3.1380     0.0000    13.0000 </r>
       <r>     3.2848     0.0000    13.0000 </r>
       <r>     3.4316     0.0000    13.0000 </r>
       <r>     3.5784     0.0000    13.0000 </r>
       <r>     3.7252     0.0000    13.0000 </r>
       <r>     3.8719     0.0000    13.0000 </r>
       <r>     4.0187     0.0000    13.0000 </r>
       <r>     4.1655     0.0000    13.0000 </r>
       <r>     4.3123     0.0000    13.0000 </r>
       <r>     4.4591     0.0000    13.0000 </r>
       <r>     4.6059     0.0000    13.0000 </r>
       <r>     4.7526     0.0000    13.0000 </r>
       <r>     4.8994     0.0000    13.0000 </r>
       <r>     5.0462     0.0000    13.0000 </r>
       <r>     5.1930     0.0000    13.0000 </r>
       <r>     5.3398     0.0000    13.0000 </r>
       <r>     5.4865     0.0000    13.0000 </r>
       <r>     5.6333     0.0000    13.0000 </r>
       <r>     5.7801     0.0000    13.0000 </r>
       <r>     5.9269     0.0000    13.0000 </r>
       <r>     6.0737     0.0000    13.0000 </r>
       <r>     6.2205     0.0000    13.0000 </r>
       <r>     6.3672     0.0000    13.0000 </r>
       <r>     6.5140     0.0000    13.0000 </r>
       <r>     6.6608     0.0000    13.0000 </r>
       <r>     6.8076     0.0000    13.0000 </r>
       <r>     6.9544     0.0000    13.0000 </r>
       <r>     7.1011     0.0000    13.0000 </r>
       <r>     7.2479     0.0000    13.0000 </r>
       <r>     7.3947     0.0000    13.0000 </r>
       <r>     7.5415     0.0000    13.0000 </r>
       <r>     7.6883     0.0000    13.0000 </r>
       <r>     7.8351     0.0000    13.0000 </r>
       <r>     7.9818     0.0000    13.0000 </r>
       <r>     8.1286     0.0000    13.0000 </r>
       <r>     8.2754     0.0000    13.0000 </r>
       <r>     8.4222     0.0000    13.0000 </r>
       <r>     8.5690     0.0000    13.0000 </r>
       <r>     8.7157     0.0000    13.0000 </r>
       <r>     8.8625     0.0000    13.0000 </r>
       <r>     9.0093     0.0000    13.0000 </r>
       <r>     9.1561     0.0000    13.0000 </r>
       <r>     9.3029     0.0000    13.0000 </r>
       <r>     9.4496     0.0000    13.0000 </r>
       <r>     9.5964     0.0000    13.0000 </r>
       <r>     9.7432     0.0000    13.0000 </r>
       <r>     9.8900     0.0000    13.0000 </r>
       <r>    10.0368     0.0062    13.0009 </r>
       <r>    10.1836     1.0040    13.1483 </r>
       <r>    10.3303     4.7736    13.8489 </r>
       <r>    10.4771     1.0227    13.9991 </r>
       <r>    10.6239     0.0064    14.0000 </r>
       <r>    10.7707     0.0000    14.0000 </r>
       <r>    10.9175     0.0000    14.0000 </r>
       <r>    11.0642     0.0192    14.0028 </r>
       <r>    11.2110     3.0493    14.4504 </r>
       <r>    11.3578    14.3174    16.5519 </r>
       <r>    11.5046     5.3252    17.3336 </r>
       <r>    11.6514    14.1839    19.4155 </r>
       <r>    11.7982     3.9481    19.9950 </r>
       <r>    11.9449     0.0340    20.0000 </r>
       <r>    12.0917     0.0105    20.0015 </r>
       <r>    12.2385     1.8600    20.2746 </r>
       <r>    12.3853     9.5305    21.6735 </r>
       <r>    12.5321     2.2093    21.9977 </r>
       <r>    12.6788     0.0153    22.0000 </r>
       <r>    12.8256     0.0000    22.0000 </r>
       <r>    12.9724     0.0000    22.0000 </r>
       <r>    13.1192     0.0000    22.0000 </r>
       <r>    13.2660     0.0000    22.0000 </r>
       <r>    13.4127     0.0000    22.0000 </r>
       <r>    13.5595     0.0000    22.0000 </r>
       <r>    13.7063     0.0000    22.0000 </r>
       <r>    13.8531     0.0000    22.0000 </r>
       <r>    13.9999     0.0000    22.0000 </r>
       <r>    14.1467     0.0000    22.0000 </r>
       <r>    14.2934     0.0000    22.0000 </r>
       <r>    14.4402     0.0000    22.0000 </r>
       <r>    14.5870     0.0000    22.0000 </r>
       <r>    14.7338     0.0000    22.0000 </r>
       <r>    14.8806     0.0000    22.0000 </r>
       <r>    15.0273     0.0000    22.0000 </r>
       <r>    15.1741     0.0000    22.0000 </r>
       <r>    15.3209     0.0000    22.0000 </r>
       <r>    15.4677     0.0000    22.0000 </r>
       <r>    15.6145     0.0000    22.0000 </r>
       <r>    15.7613     0.0000    22.0000 </r>
       <r>    15.9080     0.0000    22.0000 </r>
       <r>    16.0548     0.0000    22.0000 </r>
       <r>    16.2016     0.0000    22.0000 </r>
       <r>    16.3484     0.0000    22.0000 </r>
       <r>    16.4952     0.0000    22.0000 </r>
       <r>    16.6419     0.0000    22.0000 </r>
       <r>    16.7887     0.0000    22.0000 </r>
       <r>    16.9355     0.0000    22.0000 </r>
       <r>    17.0823     0.0000    22.0000 </r>
       <r>    17.2291     0.0000    22.0000 </r>
       <r>    17.3759     0.0001    22.0000 </r>
       <r>    17.5226     0.0924    22.0136 </r>
       <r>    17.6694     2.9513    22.4468 </r>
       <r>    17.8162     3.5915    22.9739 </r>
       <r>    17.9630     0.1775    23.0000 </r>
       <r>    18.1098     0.1756    23.0258 </r>
       <r>    18.2565     7.3461    24.1040 </r>
       <r>    18.4033    12.0112    25.8671 </r>
       <r>    18.5501     1.5184    26.0899 </r>
       <r>    18.6969    10.8694    27.6854 </r>
       <r>    18.8437     8.6707    28.9581 </r>
       <r>    18.9904     0.2855    29.0000 </r>
       <r>    19.1372     0.0002    29.0000 </r>
       <r>    19.2840     0.0000    29.0000 </r>
       <r>    19.4308     0.0000    29.0000 </r>
       <r>    19.5776     0.0000    29.0000 </r>
       <r>    19.7244     0.0000    29.0000 </r>
       <r>    19.8711     0.0000    29.0000 </r>
       <r>    20.0179     0.0000    29.0000 </r>
       <r>    20.1647     0.0000    29.0000 </r>
       <r>    20.3115     0.0000    29.0000 </r>
       <r>    20.4583     0.0000    29.0000 </r>
       <r>    20.6050     0.0000    29.0000 </r>
       <r>    20.7518     0.0000    29.0000 </r>
       <r>    20.8986     0.0082    29.0012 </r>
       <r>    21.0454     2.0408    29.3008 </r>
       <r>    21.1922    14.0139    31.3577 </r>
       <r>    21.3390     4.3330    31.9937 </r>
       <r>    21.4857     0.0427    32.0000 </r>
       <r>    21.6325     0.0527    32.0077 </r>
       <r>    21.7793     2.4330    32.3649 </r>
       <r>    21.9261     4.0424    32.9582 </r>
       <r>    22.0729     0.2842    32.9999 </r>
       <r>    22.2196     0.0005    33.0000 </r>
       <r>    22.3664     0.0000    33.0000 </r>
       <r>    22.5132     0.0000    33.0000 </r>
       <r>    22.6600     0.0000    33.0000 </r>
       <r>    22.8068     0.0000    33.0000 </r>
       <r>    22.9536     0.0000    33.0000 </r>
       <r>    23.1003     0.0000    33.0000 </r>
       <r>    23.2471     0.0000    33.0000 </r>
       <r>    23.3939     0.0000    33.0000 </r>
       <r>    23.5407     0.0000    33.0000 </r>
       <r>    23.6875     0.0000    33.0000 </r>
       <r>    23.8342     0.0018    33.0003 </r>
       <r>    23.9810     0.7799    33.1147 </r>
       <r>    24.1278     8.6259    34.3809 </r>
       <r>    24.2746     4.1491    34.9899 </r>
       <r>    24.4214     0.0690    35.0000 </r>
       <r>    24.5681     0.0000    35.0000 </r>
       <r>    24.7149     0.0000    35.0000 </r>
       <r>    24.8617     0.0000    35.0000 </r>
       <r>    25.0085     0.0000    35.0000 </r>
       <r>    25.1553     0.0000    35.0000 </r>
       <r>    25.3021     0.0000    35.0000 </r>
       <r>    25.4488     0.0000    35.0000 </r>
       <r>    25.5956     0.0000    35.0000 </r>
       <r>    25.7424     0.0158    35.0023 </r>
       <r>    25.8892     1.5182    35.2252 </r>
       <r>    26.0360     4.6434    35.9067 </r>
       <r>    26.1827     0.6330    35.9997 </r>
       <r>    26.3295     0.0023    36.0000 </r>
       <r>    26.4763     0.0000    36.0000 </r>
       <r>    26.6231     0.0000    36.0000 </r>
       <r>    26.7699     0.0000    36.0000 </r>
       <r>    26.9167     0.0000    36.0000 </r>
       <r>    27.0634     0.0000    36.0000 </r>
       <r>    27.2102     0.0000    36.0000 </r>
       <r>    27.3570     0.0000    36.0000 </r>
       <r>    27.5038     0.0000    36.0000 </r>
       <r>    27.6506     0.0000    36.0000 </r>
       <r>    27.7973     0.0000    36.0000 </r>
       <r>    27.9441     0.0000    36.0000 </r>
      </set>
      <set comment="spin 2">
       <r>   -16.0903     0.0000     0.0000 </r>
       <r>   -15.9436     0.0000     0.0000 </r>
       <r>   -15.7968     0.0000     0.0000 </r>
       <r>   -15.6500     0.0000     0.0000 </r>
       <r>   -15.5032     0.0000     0.0000 </r>
       <r>   -15.3564     0.0000     0.0000 </r>
       <r>   -15.2097     0.0000     0.0000 </r>
       <r>   -15.0629     0.0000     0.0000 </r>
       <r>   -14.9161     0.0000     0.0000 </r>
       <r>   -14.7693     0.0000     0.0000 </r>
       <r>   -14.6225     0.0000     0.0000 </r>
       <r>   -14.4757     0.0000     0.0000 </r>
       <r>   -14.3290     0.0023     0.0003 </r>
       <r>   -14.1822     0.6330     0.0933 </r>
       <r>   -14.0354     4.6434     0.7748 </r>
       <r>   -13.8886     1.5182     0.9977 </r>
       <r>   -13.7418     0.0158     1.0000 </r>
       <r>   -13.5951     0.0000     1.0000 </r>
       <r>   -13.4483     0.0000     1.0000 </r>
       <r>   -13.3015     0.0000     1.0000 </r>
       <r>   -13.1547     0.0008     1.0001 </r>
       <r>   -13.0079     0.5268     1.0774 </r>
       <r>   -12.8611     7.9441     2.2435 </r>
       <r>   -12.7144     5.0379     2.9830 </r>
       <r>   -12.5676     0.1160     3.0000 </r>
       <r>   -12.4208     0.0001     3.0000 </r>
       <r>   -12.2740     0.0000     3.0000 </r>
       <r>   -12.1272     0.0000     3.0000 </r>
       <r>   -11.9805     0.0000     3.0000 </r>
       <r>   -11.8337     0.0000     3.0000 </r>
       <r>   -11.6869     0.0000     3.0000 </r>
       <r>   -11.5401     0.0000     3.0000 </r>
       <r>   -11.3933     0.0000     3.0000 </r>
       <r>   -11.2466     0.0000     3.0000 </r>
       <r>   -11.0998     0.0000     3.0000 </r>
       <r>   -10.9530     0.0000     3.0000 </r>
       <r>   -10.8062     0.0000     3.0000 </r>
       <r>   -10.6594     0.0000     3.0000 </r>
       <r>   -10.5126     0.0000     3.0000 </r>
       <r>   -10.3659     0.0000     3.0000 </r>
       <r>   -10.2191     0.0000     3.0000 </r>
       <r>   -10.0723     0.0000     3.0000 </r>
       <r>    -9.9255     0.0000     3.0000 </r>
       <r>    -9.7787     0.0000     3.0000 </r>
       <r>    -9.6320     0.0000     3.0000 </r>
       <r>    -9.4852     0.0000     3.0000 </r>
       <r>    -9.3384     0.0000     3.0000 </r>
       <r>    -9.1916     0.0000     3.0000 </r>
       <r>    -9.0448     0.0000     3.0000 </r>
       <r>    -8.8980     0.0000     3.0000 </r>
       <r>    -8.7513     0.0000     3.0000 </r>
       <r>    -8.6045     0.0000     3.0000 </r>
       <r>    -8.4577     0.0000     3.0000 </r>
       <r>    -8.3109     0.0000     3.0000 </r>
       <r>    -8.1641     0.0000     3.0000 </r>
       <r>    -8.0174     0.0000     3.0000 </r>
       <r>    -7.8706     0.0000     3.0000 </r>
       <r>    -7.7238     0.0000     3.0000 </r>
       <r>    -7.5770     0.0000     3.0000 </r>
       <r>    -7.4302     0.0000     3.0000 </r>
       <r>    -7.2835     0.0000     3.0000 </r>
       <r>    -7.1367     0.0000     3.0000 </r>
       <r>    -6.9899     0.0000     3.0000 </r>
       <r>    -6.8431     0.0000     3.0000 </r>
       <r>    -6.6963     0.0000     3.0000 </r>
       <r>    -6.5495     0.0000     3.0000 </r>
       <r>    -6.4028     0.0000     3.0000 </r>
       <r>    -6.2560     0.0000     3.0000 </r>
       <r>    -6.1092     0.0000     3.0000 </r>
       <r>    -5.9624     0.0000     3.0000 </r>
       <r>    -5.8156     0.0000     3.0000 </r>
       <r>    -5.6689     0.0000     3.0000 </r>
       <r>    -5.5221     0.0000     3.0000 </r>
       <r>    -5.3753     0.0000     3.0000 </r>
       <r>    -5.2285     0.0000     3.0000 </r>
       <r>    -5.0817     0.0000     3.0000 </r>
       <r>    -4.9349     0.0000     3.0000 </r>
       <r>    -4.7882     0.0000     3.0000 </r>
       <r>    -4.6414     0.0000     3.0000 </r>
       <r>    -4.4946     0.0000     3.0000 </r>
       <r>    -4.3478     0.0000     3.0000 </r>
       <r>    -4.2010     0.0000     3.0000 </r>
       <r>    -4.0543     0.0000     3.0000 </r>
       <r>    -3.9075     0.0000     3.0000 </r>
       <r>    -3.7607     0.0000     3.0000 </r>
       <r>    -3.6139     0.0000     3.0000 </r>
       <r>    -3.4671     0.0000     3.0000 </r>
       <r>    -3.3203     0.0000     3.0000 </r>
       <r>    -3.1736     0.0000     3.0000 </r>
       <r>    -3.0268     0.0000     3.0000 </r>
       <r>    -2.8800     0.0000     3.0000 </r>
       <r>    -2.7332     0.0000     3.0000 </r>
       <r>    -2.5864     0.0000     3.0000 </r>
       <r>    -2.4397     0.0000     3.0000 </r>
       <r>    -2.2929     0.0000     3.0000 </r>
       <r>    -2.1461     0.0000     3.0000 </r>
       <r>    -1.9993     0.0000     3.0000 </r>
       <r>    -1.8525     0.0000     3.0000 </r>
       <r>    -1.7058     0.0000     3.0000 </r>
       <r>    -1.5590     0.0000     3.0000 </r>
       <r>    -1.4122     0.0000     3.0000 </r>
       <r>    -1.2654     0.0000     3.0000 </r>
       <r>    -1.1186     0.0054     3.0008 </r>
       <r>    -0.9718     1.6735     3.2464 </r>
       <r>    -0.8251    13.7180     5.2600 </r>
       <r>    -0.6783     4.9827     5.9914 </r>
       <r>    -0.5315     0.0589     6.0000 </r>
       <r>    -0.3847     0.0000     6.0000 </r>
       <r>    -0.2379     0.0000     6.0000 </r>
       <r>    -0.0912     0.0000     6.0000 </r>
       <r>     0.0556     0.0000     6.0000 </r>
       <r>     0.2024     0.0000     6.0000 </r>
       <r>     0.3492     0.0000     6.0000 </r>
       <r>     0.4960     0.0000     6.0000 </r>
       <r>     0.6428     0.0000     6.0000 </r>
       <r>     0.7895     0.0000     6.0000 </r>
       <r>     0.9363     0.0000     6.0000 </r>
       <r>     1.0831     0.0001     6.0000 </r>
       <r>     1.2299     0.1887     6.0277 </r>
       <r>     1.3767     7.7753     7.1690 </r>
       <r>     1.5234    11.7329     8.8912 </r>
       <r>     1.6702     0.7404     8.9998 </r>
       <r>     1.8170     0.0011     9.0000 </r>
       <r>     1.9638     0.0001     9.0000 </r>
       <r>     2.1106     0.1538     9.0226 </r>
       <r>     2.2574     7.3119    10.0958 </r>
       <r>     2.4041    15.0421    12.3037 </r>
       <r>     2.5509     4.5481    12.9713 </r>
       <r>     2.6977     0.1952    13.0000 </r>
       <r>     2.8445     0.0002    13.0000 </r>
       <r>     2.9913     0.0000    13.0000 </r>
       <r>     3.1380     0.0000    13.0000 </r>
       <r>     3.2848     0.0000    13.0000 </r>
       <r>     3.4316     0.0000    13.0000 </r>
       <r>     3.5784     0.0000    13.0000 </r>
       <r>     3.7252     0.0000    13.0000 </r>
       <r>     3.8719     0.0000    13.0000 </r>
       <r>     4.0187     0.0000    13.0000 </r>
       <r>     4.1655     0.0000    13.0000 </r>
       <r>     4.3123     0.0000    13.0000 </r>
       <r>     4.4591     0.0000    13.0000 </r>
       <r>     4.6059     0.0000    13.0000 </r>
       <r>     4.7526     0.0000    13.0000 </r>
       <r>     4.8994     0.0000    13.0000 </r>
       <r>     5.0462     0.0000    13.0000 </r>
       <r>     5.1930     0.0000    13.0000 </r>
       <r>     5.3398     0.0000    13.0000 </r>
       <r>     5.4865     0.0000    13.0000 </r>
       <r>     5.6333     0.0000    13.0000 </r>
       <r>     5.7801     0.0000    13.0000 </r>
       <r>     5.9269     0.0000    13.0000 </r>
       <r>     6.0737     0.0000    13.0000 </r>
       <r>     6.2205     0.0000    13.0000 </r>
       <r>     6.3672     0.0000    13.0000 </r>
       <r>     6.5140     0.0000    13.0000 </r>
       <r>     6.6608     0.0000    13.0000 </r>
       <r>     6.8076     0.0000    13.0000 </r>
       <r>     6.9544     0.0000    13.0000 </r>
       <r>     7.1011     0.0000    13.0000 </r>
       <r>     7.2479     0.0000    13.0000 </r>
       <r>     7.3947     0.0000    13.0000 </r>
       <r>     7.5415     0.0000    13.0000 </r>
       <r>     7.6883     0.0000    13.0000 </r>
       <r>     7.8351     0.0000    13.0000 </r>
       <r>     7.9818     0.0000    13.0000 </r>
       <r>     8.1286     0.0000    13.0000 </r>
       <r>     8.2754     0.0000    13.0000 </r>
       <r>     8.4222     0.0000    13.0000 </r>
       <r>     8.5690     0.0000    13.0000 </r>
       <r>     8.7157     0.0000    13.0000 </r>
       <r>     8.8625     0.0000    13.0000 </r>
       <r>     9.0093     0.0000    13.0000 </r>
       <r>     9.1561     0.0000    13.0000 </r>
       <r>     9.3029     0.0000    13.0000 </r>
       <r>     9.4496     0.0000    13.0000 </r>
       <r>     9.5964     0.0000    13.0000 </r>
       <r>     9.7432     0.0000    13.0000 </r>
       <r>     9.8900     0.0000    13.0000 </r>
       <r>    10.0368     0.0062    13.0009 </r>
       <r>    10.1836     1.0039    13.1483 </r>
       <r>    10.3303     4.7736    13.8489 </r>
       <r>    10.4771     1.0227    13.9991 </r>
       <r>    10.6239     0.0064    14.0000 </r>
       <r>    10.7707     0.0000    14.0000 </r>
       <r>    10.9175     0.0000    14.0000 </r>
       <r>    11.0642     0.0191    14.0028 </r>
       <r>    11.2110     3.0440    14.4496 </r>
       <r>    11.3578    14.3173    16.5511 </r>
       <r>    11.5046     5.3265    17.3330 </r>
       <r>    11.6514    14.1822    19.4146 </r>
       <r>    11.7982     3.9538    19.9950 </r>
       <r>    11.9449     0.0341    20.0000 </r>
       <r>    12.0917     0.0106    20.0016 </r>
       <r>    12.2385     1.8648    20.2753 </r>
       <r>    12.3853     9.5311    21.6742 </r>
       <r>    12.5321     2.2040    21.9978 </r>
       <r>    12.6788     0.0153    22.0000 </r>
       <r>    12.8256     0.0000    22.0000 </r>
       <r>    12.9724     0.0000    22.0000 </r>
       <r>    13.1192     0.0000    22.0000 </r>
       <r>    13.2660     0.0000    22.0000 </r>
       <r>    13.4127     0.0000    22.0000 </r>
       <r>    13.5595     0.0000    22.0000 </r>
       <r>    13.7063     0.0000    22.0000 </r>
       <r>    13.8531     0.0000    22.0000 </r>
       <r>    13.9999     0.0000    22.0000 </r>
       <r>    14.1467     0.0000    22.0000 </r>
       <r>    14.2934     0.0000    22.0000 </r>
       <r>    14.4402     0.0000    22.0000 </r>
       <r>    14.5870     0.0000    22.0000 </r>
       <r>    14.7338     0.0000    22.0000 </r>
       <r>    14.8806     0.0000    22.0000 </r>
       <r>    15.0273     0.0000    22.0000 </r>
       <r>    15.1741     0.0000    22.0000 </r>
       <r>    15.3209     0.0000    22.0000 </r>
       <r>    15.4677     0.0000    22.0000 </r>
       <r>    15.6145     0.0000    22.0000 </r>
       <r>    15.7613     0.0000    22.0000 </r>
       <r>    15.9080     0.0000    22.0000 </r>
       <r>    16.0548     0.0000    22.0000 </r>
       <r>    16.2016     0.0000    22.0000 </r>
       <r>    16.3484     0.0000    22.0000 </r>
       <r>    16.4952     0.0000    22.0000 </r>
       <r>    16.6419     0.0000    22.0000 </r>
       <r>    16.7887     0.0000    22.0000 </r>
       <r>    16.9355     0.0000    22.0000 </r>
       <r>    17.0823     0.0000    22.0000 </r>
       <r>    17.2291     0.0000    22.0000 </r>
       <r>    17.3759     0.0001    22.0000 </r>
       <r>    17.5226     0.0930    22.0137 </r>
       <r>    17.6694     2.9581    22.4479 </r>
       <r>    17.8162     3.5852    22.9741 </r>
       <r>    17.9630     0.1764    23.0000 </r>
       <r>    18.1098     0.1756    23.0258 </r>
       <r>    18.2565     7.3461    24.1040 </r>
       <r>    18.4033    12.0113    25.8671 </r>
       <r>    18.5501     1.5177    26.0898 </r>
       <r>    18.6969    10.8663    27.6848 </r>
       <r>    18.8437     8.6741    28.9580 </r>
       <r>    18.9904     0.2858    29.0000 </r>
       <r>    19.1372     0.0002    29.0000 </r>
       <r>    19.2840     0.0000    29.0000 </r>
       <r>    19.4308     0.0000    29.0000 </r>
       <r>    19.5776     0.0000    29.0000 </r>
       <r>    19.7244     0.0000    29.0000 </r>
       <r>    19.8711     0.0000    29.0000 </r>
       <r>    20.0179     0.0000    29.0000 </r>
       <r>    20.1647     0.0000    29.0000 </r>
       <r>    20.3115     0.0000    29.0000 </r>
       <r>    20.4583     0.0000    29.0000 </r>
       <r>    20.6050     0.0000    29.0000 </r>
       <r>    20.7518     0.0000    29.0000 </r>
       <r>    20.8986     0.0082    29.0012 </r>
       <r>    21.0454     2.0440    29.3012 </r>
       <r>    21.1922    14.0160    31.3585 </r>
       <r>    21.3390     4.3278    31.9938 </r>
       <r>    21.4857     0.0425    32.0000 </r>
       <r>    21.6325     0.0523    32.0077 </r>
       <r>    21.7793     2.4271    32.3639 </r>
       <r>    21.9261     4.0472    32.9580 </r>
       <r>    22.0729     0.2857    32.9999 </r>
       <r>    22.2196     0.0005    33.0000 </r>
       <r>    22.3664     0.0000    33.0000 </r>
       <r>    22.5132     0.0000    33.0000 </r>
       <r>    22.6600     0.0000    33.0000 </r>
       <r>    22.8068     0.0000    33.0000 </r>
       <r>    22.9536     0.0000    33.0000 </r>
       <r>    23.1003     0.0000    33.0000 </r>
       <r>    23.2471     0.0000    33.0000 </r>
       <r>    23.3939     0.0000    33.0000 </r>
       <r>    23.5407     0.0000    33.0000 </r>
       <r>    23.6875     0.0000    33.0000 </r>
       <r>    23.8342     0.0018    33.0003 </r>
       <r>    23.9810     0.7819    33.1150 </r>
       <r>    24.1278     8.6302    34.3818 </r>
       <r>    24.2746     4.1431    34.9899 </r>
       <r>    24.4214     0.0687    35.0000 </r>
       <r>    24.5681     0.0000    35.0000 </r>
       <r>    24.7149     0.0000    35.0000 </r>
       <r>    24.8617     0.0000    35.0000 </r>
       <r>    25.0085     0.0000    35.0000 </r>
       <r>    25.1553     0.0000    35.0000 </r>
       <r>    25.3021     0.0000    35.0000 </r>
       <r>    25.4488     0.0000    35.0000 </r>
       <r>    25.5956     0.0000    35.0000 </r>
       <r>    25.7424     0.0162    35.0024 </r>
       <r>    25.8892     1.5329    35.2274 </r>
       <r>    26.0360     4.6367    35.9080 </r>
       <r>    26.1827     0.6248    35.9997 </r>
       <r>    26.3295     0.0023    36.0000 </r>
       <r>    26.4763     0.0000    36.0000 </r>
       <r>    26.6231     0.0000    36.0000 </r>
       <r>    26.7699     0.0000    36.0000 </r>
       <r>    26.9167     0.0000    36.0000 </r>
       <r>    27.0634     0.0000    36.0000 </r>
       <r>    27.2102     0.0000    36.0000 </r>
       <r>    27.3570     0.0000    36.0000 </r>
       <r>    27.5038     0.0000    36.0000 </r>
       <r>    27.6506     0.0000    36.0000 </r>
       <r>    27.7973     0.0000    36.0000 </r>
       <r>    27.9441     0.0000    36.0000 </r>
      </set>
     </set>
    </array>
   </total>
   <partial>
    <array>
     <dimension dim="1">gridpoints</dimension>
     <dimension dim="2">spin</dimension>
     <dimension dim="3">ion</dimension>
     <field>energy</field>
     <field>    s</field>
     <field>   py</field>
     <field>   pz</field>
     <field>   px</field>
     <field>  dxy</field>
     <field>  dyz</field>
     <field>  dz2</field>
     <field>  dxz</field>
     <field>x2-y2</field>
     <set>
      <set comment="ion 1">
       <set comment="spin 1">
        <r>   -16.0903     0.0000     0.0000     0.0000     0.0000     0.0000     0.0000     0.0000     0.0000     0.0000 </r>
        <r>   -15.9436     0.0000     0.0000     0.0000     0.0000     0.0000     0.0000     0.0000     0.0000     0.0000 </r>
        <r>   -15.7968     0.0000     0.0000     0.0000     0.0000     0.0000     0.0000     0.0000     0.0000     0.0000 </r>
        <r>   -15.6500     0.0000     0.0000     0.0000     0.0000     0.0000     0.0000     0.0000     0.0000     0.0000 </r>
        <r>   -15.5032     0.0000     0.0000     0.0000     0.0000     0.0000     0.0000     0.0000     0.0000     0.0000 </r>
        <r>   -15.3564     0.0000     0.0000     0.0000     0.0000     0.0000     0.0000     0.0000     0.0000     0.0000 </r>
        <r>   -15.2097     0.0000     0.0000     0.0000     0.0000     0.0000     0.0000     0.0000     0.0000     0.0000 </r>
        <r>   -15.0629     0.0000     0.0000     0.0000     0.0000     0.0000     0.0000     0.0000     0.0000     0.0000 </r>
        <r>   -14.9161     0.0000     0.0000     0.0000     0.0000     0.0000     0.0000     0.0000     0.0000     0.0000 </r>
        <r>   -14.7693     0.0000     0.0000     0.0000     0.0000     0.0000     0.0000     0.0000     0.0000     0.0000 </r>
        <r>   -14.6225     0.0000     0.0000     0.0000     0.0000     0.0000     0.0000     0.0000     0.0000     0.0000 </r>
        <r>   -14.4757     0.0000     0.0000     0.0000     0.0000     0.0000     0.0000     0.0000     0.0000     0.0000 </r>
        <r>   -14.3290     0.0000     0.0000     0.0000     0.0000     0.0000     0.0000     0.0000     0.0000     0.0000 </r>
        <r>   -14.1822     0.0047     0.0000     0.0000     0.0000     0.0000     0.0000     0.0001     0.0000     0.0002 </r>
        <r>   -14.0354     0.0347     0.0000     0.0000     0.0000     0.0000     0.0000     0.0006     0.0000     0.0018 </r>
        <r>   -13.8886     0.0114     0.0000     0.0000     0.0000     0.0000     0.0000     0.0002     0.0000     0.0006 </r>
        <r>   -13.7418     0.0001     0.0000     0.0000     0.0000     0.0000     0.0000     0.0000     0.0000     0.0000 </r>
        <r>   -13.5951     0.0000     0.0000     0.0000     0.0000     0.0000     0.0000     0.0000     0.0000     0.0000 </r>
        <r>   -13.4483     0.0000     0.0000     0.0000     0.0000     0.0000     0.0000     0.0000     0.0000     0.0000 </r>
        <r>   -13.3015     0.0000     0.0000     0.0000     0.0000     0.0000     0.0000     0.0000     0.0000     0.0000 </r>
        <r>   -13.1547     0.0000     0.0000     0.0000     0.0000     0.0000     0.0000     0.0000     0.0000     0.0000 </r>
        <r>   -13.0079     0.0009     0.0000     0.0000     0.0000     0.0000     0.0000     0.0007     0.0000     0.0003 </r>
        <r>   -12.8611     0.0136     0.0000     0.0000     0.0000     0.0000     0.0000     0.0101     0.0000     0.0043 </r>
        <r>   -12.7144     0.0087     0.0000     0.0000     0.0000     0.0000     0.0000     0.0064     0.0000     0.0027 </r>
        <r>   -12.5676     0.0002     0.0000     0.0000     0.0000     0.0000     0.0000     0.0001     0.0000     0.0001 </r>
        <r>   -12.4208     0.0000     0.0000     0.0000     0.0000     0.0000     0.0000     0.0000     0.0000     0.0000 </r>
        <r>   -12.2740     0.0000     0.0000     0.0000     0.0000     0.0000     0.0000     0.0000     0.0000     0.0000 </r>
        <r>   -12.1272     0.0000     0.0000     0.0000     0.0000     0.0000     0.0000     0.0000     0.0000     0.0000 </r>
        <r>   -11.9805     0.0000     0.0000     0.0000     0.0000     0.0000     0.0000     0.0000     0.0000     0.0000 </r>
        <r>   -11.8337     0.0000     0.0000     0.0000     0.0000     0.0000     0.0000     0.0000     0.0000     0.0000 </r>
        <r>   -11.6869     0.0000     0.0000     0.0000     0.0000     0.0000     0.0000     0.0000     0.0000     0.0000 </r>
        <r>   -11.5401     0.0000     0.0000     0.0000     0.0000     0.0000     0.0000     0.0000     0.0000     0.0000 </r>
        <r>   -11.3933     0.0000     0.0000     0.0000     0.0000     0.0000     0.0000     0.0000     0.0000     0.0000 </r>
        <r>   -11.2466     0.0000     0.0000     0.0000     0.0000     0.0000     0.0000     0.0000     0.0000     0.0000 </r>
        <r>   -11.0998     0.0000     0.0000     0.0000     0.0000     0.0000     0.0000     0.0000     0.0000     0.0000 </r>
        <r>   -10.9530     0.0000     0.0000     0.0000     0.0000     0.0000     0.0000     0.0000     0.0000     0.0000 </r>
        <r>   -10.8062     0.0000     0.0000     0.0000     0.0000     0.0000     0.0000     0.0000     0.0000     0.0000 </r>
        <r>   -10.6594     0.0000     0.0000     0.0000     0.0000     0.0000     0.0000     0.0000     0.0000     0.0000 </r>
        <r>   -10.5126     0.0000     0.0000     0.0000     0.0000     0.0000     0.0000     0.0000     0.0000     0.0000 </r>
        <r>   -10.3659     0.0000     0.0000     0.0000     0.0000     0.0000     0.0000     0.0000     0.0000     0.0000 </r>
        <r>   -10.2191     0.0000     0.0000     0.0000     0.0000     0.0000     0.0000     0.0000     0.0000     0.0000 </r>
        <r>   -10.0723     0.0000     0.0000     0.0000     0.0000     0.0000     0.0000     0.0000     0.0000     0.0000 </r>
        <r>    -9.9255     0.0000     0.0000     0.0000     0.0000     0.0000     0.0000     0.0000     0.0000     0.0000 </r>
        <r>    -9.7787     0.0000     0.0000     0.0000     0.0000     0.0000     0.0000     0.0000     0.0000     0.0000 </r>
        <r>    -9.6320     0.0000     0.0000     0.0000     0.0000     0.0000     0.0000     0.0000     0.0000     0.0000 </r>
        <r>    -9.4852     0.0000     0.0000     0.0000     0.0000     0.0000     0.0000     0.0000     0.0000     0.0000 </r>
        <r>    -9.3384     0.0000     0.0000     0.0000     0.0000     0.0000     0.0000     0.0000     0.0000     0.0000 </r>
        <r>    -9.1916     0.0000     0.0000     0.0000     0.0000     0.0000     0.0000     0.0000     0.0000     0.0000 </r>
        <r>    -9.0448     0.0000     0.0000     0.0000     0.0000     0.0000     0.0000     0.0000     0.0000     0.0000 </r>
        <r>    -8.8980     0.0000     0.0000     0.0000     0.0000     0.0000     0.0000     0.0000     0.0000     0.0000 </r>
        <r>    -8.7513     0.0000     0.0000     0.0000     0.0000     0.0000     0.0000     0.0000     0.0000     0.0000 </r>
        <r>    -8.6045     0.0000     0.0000     0.0000     0.0000     0.0000     0.0000     0.0000     0.0000     0.0000 </r>
        <r>    -8.4577     0.0000     0.0000     0.0000     0.0000     0.0000     0.0000     0.0000     0.0000     0.0000 </r>
        <r>    -8.3109     0.0000     0.0000     0.0000     0.0000     0.0000     0.0000     0.0000     0.0000     0.0000 </r>
        <r>    -8.1641     0.0000     0.0000     0.0000     0.0000     0.0000     0.0000     0.0000     0.0000     0.0000 </r>
        <r>    -8.0174     0.0000     0.0000     0.0000     0.0000     0.0000     0.0000     0.0000     0.0000     0.0000 </r>
        <r>    -7.8706     0.0000     0.0000     0.0000     0.0000     0.0000     0.0000     0.0000     0.0000     0.0000 </r>
        <r>    -7.7238     0.0000     0.0000     0.0000     0.0000     0.0000     0.0000     0.0000     0.0000     0.0000 </r>
        <r>    -7.5770     0.0000     0.0000     0.0000     0.0000     0.0000     0.0000     0.0000     0.0000     0.0000 </r>
        <r>    -7.4302     0.0000     0.0000     0.0000     0.0000     0.0000     0.0000     0.0000     0.0000     0.0000 </r>
        <r>    -7.2835     0.0000     0.0000     0.0000     0.0000     0.0000     0.0000     0.0000     0.0000     0.0000 </r>
        <r>    -7.1367     0.0000     0.0000     0.0000     0.0000     0.0000     0.0000     0.0000     0.0000     0.0000 </r>
        <r>    -6.9899     0.0000     0.0000     0.0000     0.0000     0.0000     0.0000     0.0000     0.0000     0.0000 </r>
        <r>    -6.8431     0.0000     0.0000     0.0000     0.0000     0.0000     0.0000     0.0000     0.0000     0.0000 </r>
        <r>    -6.6963     0.0000     0.0000     0.0000     0.0000     0.0000     0.0000     0.0000     0.0000     0.0000 </r>
        <r>    -6.5495     0.0000     0.0000     0.0000     0.0000     0.0000     0.0000     0.0000     0.0000     0.0000 </r>
        <r>    -6.4028     0.0000     0.0000     0.0000     0.0000     0.0000     0.0000     0.0000     0.0000     0.0000 </r>
        <r>    -6.2560     0.0000     0.0000     0.0000     0.0000     0.0000     0.0000     0.0000     0.0000     0.0000 </r>
        <r>    -6.1092     0.0000     0.0000     0.0000     0.0000     0.0000     0.0000     0.0000     0.0000     0.0000 </r>
        <r>    -5.9624     0.0000     0.0000     0.0000     0.0000     0.0000     0.0000     0.0000     0.0000     0.0000 </r>
        <r>    -5.8156     0.0000     0.0000     0.0000     0.0000     0.0000     0.0000     0.0000     0.0000     0.0000 </r>
        <r>    -5.6689     0.0000     0.0000     0.0000     0.0000     0.0000     0.0000     0.0000     0.0000     0.0000 </r>
        <r>    -5.5221     0.0000     0.0000     0.0000     0.0000     0.0000     0.0000     0.0000     0.0000     0.0000 </r>
        <r>    -5.3753     0.0000     0.0000     0.0000     0.0000     0.0000     0.0000     0.0000     0.0000     0.0000 </r>
        <r>    -5.2285     0.0000     0.0000     0.0000     0.0000     0.0000     0.0000     0.0000     0.0000     0.0000 </r>
        <r>    -5.0817     0.0000     0.0000     0.0000     0.0000     0.0000     0.0000     0.0000     0.0000     0.0000 </r>
        <r>    -4.9349     0.0000     0.0000     0.0000     0.0000     0.0000     0.0000     0.0000     0.0000     0.0000 </r>
        <r>    -4.7882     0.0000     0.0000     0.0000     0.0000     0.0000     0.0000     0.0000     0.0000     0.0000 </r>
        <r>    -4.6414     0.0000     0.0000     0.0000     0.0000     0.0000     0.0000     0.0000     0.0000     0.0000 </r>
        <r>    -4.4946     0.0000     0.0000     0.0000     0.0000     0.0000     0.0000     0.0000     0.0000     0.0000 </r>
        <r>    -4.3478     0.0000     0.0000     0.0000     0.0000     0.0000     0.0000     0.0000     0.0000     0.0000 </r>
        <r>    -4.2010     0.0000     0.0000     0.0000     0.0000     0.0000     0.0000     0.0000     0.0000     0.0000 </r>
        <r>    -4.0543     0.0000     0.0000     0.0000     0.0000     0.0000     0.0000     0.0000     0.0000     0.0000 </r>
        <r>    -3.9075     0.0000     0.0000     0.0000     0.0000     0.0000     0.0000     0.0000     0.0000     0.0000 </r>
        <r>    -3.7607     0.0000     0.0000     0.0000     0.0000     0.0000     0.0000     0.0000     0.0000     0.0000 </r>
        <r>    -3.6139     0.0000     0.0000     0.0000     0.0000     0.0000     0.0000     0.0000     0.0000     0.0000 </r>
        <r>    -3.4671     0.0000     0.0000     0.0000     0.0000     0.0000     0.0000     0.0000     0.0000     0.0000 </r>
        <r>    -3.3203     0.0000     0.0000     0.0000     0.0000     0.0000     0.0000     0.0000     0.0000     0.0000 </r>
        <r>    -3.1736     0.0000     0.0000     0.0000     0.0000     0.0000     0.0000     0.0000     0.0000     0.0000 </r>
        <r>    -3.0268     0.0000     0.0000     0.0000     0.0000     0.0000     0.0000     0.0000     0.0000     0.0000 </r>
        <r>    -2.8800     0.0000     0.0000     0.0000     0.0000     0.0000     0.0000     0.0000     0.0000     0.0000 </r>
        <r>    -2.7332     0.0000     0.0000     0.0000     0.0000     0.0000     0.0000     0.0000     0.0000     0.0000 </r>
        <r>    -2.5864     0.0000     0.0000     0.0000     0.0000     0.0000     0.0000     0.0000     0.0000     0.0000 </r>
        <r>    -2.4397     0.0000     0.0000     0.0000     0.0000     0.0000     0.0000     0.0000     0.0000     0.0000 </r>
        <r>    -2.2929     0.0000     0.0000     0.0000     0.0000     0.0000     0.0000     0.0000     0.0000     0.0000 </r>
        <r>    -2.1461     0.0000     0.0000     0.0000     0.0000     0.0000     0.0000     0.0000     0.0000     0.0000 </r>
        <r>    -1.9993     0.0000     0.0000     0.0000     0.0000     0.0000     0.0000     0.0000     0.0000     0.0000 </r>
        <r>    -1.8525     0.0000     0.0000     0.0000     0.0000     0.0000     0.0000     0.0000     0.0000     0.0000 </r>
        <r>    -1.7058     0.0000     0.0000     0.0000     0.0000     0.0000     0.0000     0.0000     0.0000     0.0000 </r>
        <r>    -1.5590     0.0000     0.0000     0.0000     0.0000     0.0000     0.0000     0.0000     0.0000     0.0000 </r>
        <r>    -1.4122     0.0000     0.0000     0.0000     0.0000     0.0000     0.0000     0.0000     0.0000     0.0000 </r>
        <r>    -1.2654     0.0000     0.0000     0.0000     0.0000     0.0000     0.0000     0.0000     0.0000     0.0000 </r>
        <r>    -1.1186     0.0000     0.0000     0.0000     0.0000     0.0000     0.0000     0.0000     0.0000     0.0000 </r>
        <r>    -0.9718     0.0000     0.0125     0.0125     0.0042     0.0000     0.0000     0.0000     0.0000     0.0000 </r>
        <r>    -0.8251     0.0000     0.1023     0.1023     0.0350     0.0000     0.0000     0.0000     0.0000     0.0000 </r>
        <r>    -0.6783     0.0000     0.0371     0.0371     0.0128     0.0000     0.0000     0.0000     0.0000     0.0000 </r>
        <r>    -0.5315     0.0000     0.0004     0.0004     0.0002     0.0000     0.0000     0.0000     0.0000     0.0000 </r>
        <r>    -0.3847     0.0000     0.0000     0.0000     0.0000     0.0000     0.0000     0.0000     0.0000     0.0000 </r>
        <r>    -0.2379     0.0000     0.0000     0.0000     0.0000     0.0000     0.0000     0.0000     0.0000     0.0000 </r>
        <r>    -0.0912     0.0000     0.0000     0.0000     0.0000     0.0000     0.0000     0.0000     0.0000     0.0000 </r>
        <r>     0.0556     0.0000     0.0000     0.0000     0.0000     0.0000     0.0000     0.0000     0.0000     0.0000 </r>
        <r>     0.2024     0.0000     0.0000     0.0000     0.0000     0.0000     0.0000     0.0000     0.0000     0.0000 </r>
        <r>     0.3492     0.0000     0.0000     0.0000     0.0000     0.0000     0.0000     0.0000     0.0000     0.0000 </r>
        <r>     0.4960     0.0000     0.0000     0.0000     0.0000     0.0000     0.0000     0.0000     0.0000     0.0000 </r>
        <r>     0.6428     0.0000     0.0000     0.0000     0.0000     0.0000     0.0000     0.0000     0.0000     0.0000 </r>
        <r>     0.7895     0.0000     0.0000     0.0000     0.0000     0.0000     0.0000     0.0000     0.0000     0.0000 </r>
        <r>     0.9363     0.0000     0.0000     0.0000     0.0000     0.0000     0.0000     0.0000     0.0000     0.0000 </r>
        <r>     1.0831     0.0000     0.0000     0.0000     0.0000     0.0000     0.0000     0.0000     0.0000     0.0000 </r>
        <r>     1.2299     0.0000     0.0015     0.0015     0.0000     0.0000     0.0000     0.0000     0.0000     0.0000 </r>
        <r>     1.3767     0.0000     0.0613     0.0611     0.0000     0.0000     0.0000     0.0000     0.0000     0.0000 </r>
        <r>     1.5234     0.0000     0.0929     0.0932     0.0000     0.0000     0.0000     0.0000     0.0000     0.0000 </r>
        <r>     1.6702     0.0000     0.0059     0.0060     0.0000     0.0000     0.0000     0.0000     0.0000     0.0000 </r>
        <r>     1.8170     0.0000     0.0000     0.0000     0.0000     0.0000     0.0000     0.0000     0.0000     0.0000 </r>
        <r>     1.9638     0.0000     0.0000     0.0000     0.0000     0.0000     0.0000     0.0000     0.0000     0.0000 </r>
        <r>     2.1106     0.0000     0.0002     0.0002     0.0002     0.0000     0.0000     0.0000     0.0000     0.0000 </r>
        <r>     2.2574     0.0049     0.0103     0.0102     0.0104     0.0000     0.0000     0.0001     0.0000     0.0004 </r>
        <r>     2.4041     0.1646     0.0173     0.0173     0.0175     0.0000     0.0000     0.0046     0.0000     0.0137 </r>
        <r>     2.5509     0.2116     0.0012     0.0012     0.0013     0.0000     0.0000     0.0059     0.0000     0.0176 </r>
        <r>     2.6977     0.0111     0.0000     0.0000     0.0000     0.0000     0.0000     0.0003     0.0000     0.0009 </r>
        <r>     2.8445     0.0000     0.0000     0.0000     0.0000     0.0000     0.0000     0.0000     0.0000     0.0000 </r>
        <r>     2.9913     0.0000     0.0000     0.0000     0.0000     0.0000     0.0000     0.0000     0.0000     0.0000 </r>
        <r>     3.1380     0.0000     0.0000     0.0000     0.0000     0.0000     0.0000     0.0000     0.0000     0.0000 </r>
        <r>     3.2848     0.0000     0.0000     0.0000     0.0000     0.0000     0.0000     0.0000     0.0000     0.0000 </r>
        <r>     3.4316     0.0000     0.0000     0.0000     0.0000     0.0000     0.0000     0.0000     0.0000     0.0000 </r>
        <r>     3.5784     0.0000     0.0000     0.0000     0.0000     0.0000     0.0000     0.0000     0.0000     0.0000 </r>
        <r>     3.7252     0.0000     0.0000     0.0000     0.0000     0.0000     0.0000     0.0000     0.0000     0.0000 </r>
        <r>     3.8719     0.0000     0.0000     0.0000     0.0000     0.0000     0.0000     0.0000     0.0000     0.0000 </r>
        <r>     4.0187     0.0000     0.0000     0.0000     0.0000     0.0000     0.0000     0.0000     0.0000     0.0000 </r>
        <r>     4.1655     0.0000     0.0000     0.0000     0.0000     0.0000     0.0000     0.0000     0.0000     0.0000 </r>
        <r>     4.3123     0.0000     0.0000     0.0000     0.0000     0.0000     0.0000     0.0000     0.0000     0.0000 </r>
        <r>     4.4591     0.0000     0.0000     0.0000     0.0000     0.0000     0.0000     0.0000     0.0000     0.0000 </r>
        <r>     4.6059     0.0000     0.0000     0.0000     0.0000     0.0000     0.0000     0.0000     0.0000     0.0000 </r>
        <r>     4.7526     0.0000     0.0000     0.0000     0.0000     0.0000     0.0000     0.0000     0.0000     0.0000 </r>
        <r>     4.8994     0.0000     0.0000     0.0000     0.0000     0.0000     0.0000     0.0000     0.0000     0.0000 </r>
        <r>     5.0462     0.0000     0.0000     0.0000     0.0000     0.0000     0.0000     0.0000     0.0000     0.0000 </r>
        <r>     5.1930     0.0000     0.0000     0.0000     0.0000     0.0000     0.0000     0.0000     0.0000     0.0000 </r>
        <r>     5.3398     0.0000     0.0000     0.0000     0.0000     0.0000     0.0000     0.0000     0.0000     0.0000 </r>
        <r>     5.4865     0.0000     0.0000     0.0000     0.0000     0.0000     0.0000     0.0000     0.0000     0.0000 </r>
        <r>     5.6333     0.0000     0.0000     0.0000     0.0000     0.0000     0.0000     0.0000     0.0000     0.0000 </r>
        <r>     5.7801     0.0000     0.0000     0.0000     0.0000     0.0000     0.0000     0.0000     0.0000     0.0000 </r>
        <r>     5.9269     0.0000     0.0000     0.0000     0.0000     0.0000     0.0000     0.0000     0.0000     0.0000 </r>
        <r>     6.0737     0.0000     0.0000     0.0000     0.0000     0.0000     0.0000     0.0000     0.0000     0.0000 </r>
        <r>     6.2205     0.0000     0.0000     0.0000     0.0000     0.0000     0.0000     0.0000     0.0000     0.0000 </r>
        <r>     6.3672     0.0000     0.0000     0.0000     0.0000     0.0000     0.0000     0.0000     0.0000     0.0000 </r>
        <r>     6.5140     0.0000     0.0000     0.0000     0.0000     0.0000     0.0000     0.0000     0.0000     0.0000 </r>
        <r>     6.6608     0.0000     0.0000     0.0000     0.0000     0.0000     0.0000     0.0000     0.0000     0.0000 </r>
        <r>     6.8076     0.0000     0.0000     0.0000     0.0000     0.0000     0.0000     0.0000     0.0000     0.0000 </r>
        <r>     6.9544     0.0000     0.0000     0.0000     0.0000     0.0000     0.0000     0.0000     0.0000     0.0000 </r>
        <r>     7.1011     0.0000     0.0000     0.0000     0.0000     0.0000     0.0000     0.0000     0.0000     0.0000 </r>
        <r>     7.2479     0.0000     0.0000     0.0000     0.0000     0.0000     0.0000     0.0000     0.0000     0.0000 </r>
        <r>     7.3947     0.0000     0.0000     0.0000     0.0000     0.0000     0.0000     0.0000     0.0000     0.0000 </r>
        <r>     7.5415     0.0000     0.0000     0.0000     0.0000     0.0000     0.0000     0.0000     0.0000     0.0000 </r>
        <r>     7.6883     0.0000     0.0000     0.0000     0.0000     0.0000     0.0000     0.0000     0.0000     0.0000 </r>
        <r>     7.8351     0.0000     0.0000     0.0000     0.0000     0.0000     0.0000     0.0000     0.0000     0.0000 </r>
        <r>     7.9818     0.0000     0.0000     0.0000     0.0000     0.0000     0.0000     0.0000     0.0000     0.0000 </r>
        <r>     8.1286     0.0000     0.0000     0.0000     0.0000     0.0000     0.0000     0.0000     0.0000     0.0000 </r>
        <r>     8.2754     0.0000     0.0000     0.0000     0.0000     0.0000     0.0000     0.0000     0.0000     0.0000 </r>
        <r>     8.4222     0.0000     0.0000     0.0000     0.0000     0.0000     0.0000     0.0000     0.0000     0.0000 </r>
        <r>     8.5690     0.0000     0.0000     0.0000     0.0000     0.0000     0.0000     0.0000     0.0000     0.0000 </r>
        <r>     8.7157     0.0000     0.0000     0.0000     0.0000     0.0000     0.0000     0.0000     0.0000     0.0000 </r>
        <r>     8.8625     0.0000     0.0000     0.0000     0.0000     0.0000     0.0000     0.0000     0.0000     0.0000 </r>
        <r>     9.0093     0.0000     0.0000     0.0000     0.0000     0.0000     0.0000     0.0000     0.0000     0.0000 </r>
        <r>     9.1561     0.0000     0.0000     0.0000     0.0000     0.0000     0.0000     0.0000     0.0000     0.0000 </r>
[...]
        <r>  0.0000  0.3194  0.0000  0.0000  0.0000  0.0000  0.0000  0.0000  0.0000 </r>
       </set>
       <set comment="band 9">
        <r>  0.0000  0.0000  0.0237  0.0000  0.0000  0.0000  0.0000  0.0000  0.0000 </r>
        <r>  0.0000  0.0000  0.0000  0.0000  0.0000  0.0000  0.0000  0.0000  0.0000 </r>
        <r>  0.0000  0.0000  0.0000  0.0000  0.0000  0.0000  0.0000  0.0000  0.0000 </r>
        <r>  0.0000  0.0000  0.0237  0.0000  0.0000  0.0000  0.0000  0.0000  0.0000 </r>
        <r>  0.0000  0.0006  0.3190  0.0000  0.0000  0.0000  0.0000  0.0000  0.0000 </r>
        <r>  0.0000  0.0000  0.3193  0.0001  0.0000  0.0000  0.0000  0.0000  0.0000 </r>
        <r>  0.0000  0.0006  0.0000  0.0001  0.0000  0.0000  0.0000  0.0000  0.0000 </r>
       </set>
       <set comment="band 10">
        <r>  0.0000  0.0025  0.0000  0.0018  0.0000  0.0000  0.0000  0.0000  0.0000 </r>
        <r>  0.0000  0.0108  0.0001  0.0075  0.0000  0.0000  0.0000  0.0000  0.0000 </r>
        <r>  0.0000  0.0025  0.0000  0.0017  0.0000  0.0000  0.0000  0.0000  0.0000 </r>
        <r>  0.0000  0.0025  0.0000  0.0017  0.0000  0.0000  0.0000  0.0000  0.0000 </r>
        <r>  0.0000  0.0751  0.0005  0.1801  0.0000  0.0000  0.0000  0.0000  0.0000 </r>
        <r>  0.0000  0.2588  0.0005  0.0522  0.0000  0.0000  0.0000  0.0000  0.0000 </r>
        <r>  0.0000  0.0749  0.0018  0.0521  0.0000  0.0000  0.0000  0.0000  0.0000 </r>
       </set>
       <set comment="band 11">
        <r>  0.0000  0.0004  0.0035  0.0003  0.0000  0.0000  0.0000  0.0000  0.0000 </r>
        <r>  0.0000  0.0017  0.0153  0.0014  0.0000  0.0000  0.0000  0.0000  0.0000 </r>
        <r>  0.0000  0.0004  0.0036  0.0003  0.0000  0.0000  0.0000  0.0000  0.0000 </r>
        <r>  0.0000  0.0004  0.0036  0.0003  0.0000  0.0000  0.0000  0.0000  0.0000 </r>
        <r>  0.0000  0.0119  0.1062  0.0334  0.0000  0.0000  0.0000  0.0000  0.0000 </r>
        <r>  0.0000  0.0410  0.1060  0.0097  0.0000  0.0000  0.0000  0.0000  0.0000 </r>
        <r>  0.0000  0.0119  0.3663  0.0097  0.0000  0.0000  0.0000  0.0000  0.0000 </r>
       </set>
       <set comment="band 12">
        <r>  0.0000  0.0014  0.0007  0.0022  0.0000  0.0000  0.0000  0.0000  0.0000 </r>
        <r>  0.0000  0.0059  0.0030  0.0095  0.0000  0.0000  0.0000  0.0000  0.0000 </r>
        <r>  0.0000  0.0014  0.0007  0.0022  0.0000  0.0000  0.0000  0.0000  0.0000 </r>
        <r>  0.0000  0.0014  0.0007  0.0022  0.0000  0.0000  0.0000  0.0000  0.0000 </r>
        <r>  0.0000  0.0408  0.0210  0.2272  0.0000  0.0000  0.0000  0.0000  0.0000 </r>
        <r>  0.0000  0.1408  0.0210  0.0659  0.0000  0.0000  0.0000  0.0000  0.0000 </r>
        <r>  0.0000  0.0407  0.0726  0.0658  0.0000  0.0000  0.0000  0.0000  0.0000 </r>
       </set>
       <set comment="band 13">
        <r>  0.0576  0.0000  0.0000  0.0000  0.0000  0.0000  0.0016  0.0000  0.0048 </r>
        <r>  0.0016  0.0000  0.0000  0.0000  0.0000  0.0000  0.0000  0.0000  0.0000 </r>
        <r>  0.0575  0.0000  0.0000  0.0000  0.0000  0.0000  0.0064  0.0000  0.0000 </r>
        <r>  0.0575  0.0000  0.0000  0.0000  0.0000  0.0000  0.0016  0.0000  0.0048 </r>
        <r>  0.0320  0.0000  0.0000  0.0001  0.0000  0.0000  0.0000  0.0000  0.0000 </r>
        <r>  0.0320  0.0000  0.0000  0.0000  0.0000  0.0000  0.0000  0.0000  0.0000 </r>
        <r>  0.0320  0.0000  0.0000  0.0000  0.0000  0.0000  0.0000  0.0000  0.0000 </r>
       </set>
       <set comment="band 14">
        <r>  0.0001  0.0000  0.0000  0.0000  0.0000  0.0000  0.0015  0.0000  0.0044 </r>
        <r>  0.3110  0.0000  0.0000  0.0000  0.0000  0.0000  0.0000  0.0000  0.0000 </r>
        <r>  0.0001  0.0000  0.0000  0.0000  0.0000  0.0000  0.0059  0.0000  0.0000 </r>
        <r>  0.0001  0.0000  0.0000  0.0000  0.0000  0.0000  0.0015  0.0000  0.0044 </r>
        <r>  0.0398  0.0000  0.0000  0.0000  0.0000  0.0000  0.0000  0.0000  0.0000 </r>
        <r>  0.0398  0.0000  0.0000  0.0000  0.0000  0.0000  0.0000  0.0000  0.0000 </r>
        <r>  0.0398  0.0000  0.0000  0.0001  0.0000  0.0000  0.0000  0.0000  0.0000 </r>
       </set>
       <set comment="band 15">
        <r>  0.0001  0.0012  0.0001  0.1207  0.0002  0.0000  0.0000  0.0000  0.0000 </r>
        <r>  0.0000  0.0000  0.0000  0.0003  0.0001  0.0000  0.0000  0.0000  0.0000 </r>
        <r>  0.0023  0.0012  0.0017  0.0088  0.0001  0.0000  0.0000  0.0000  0.0000 </r>
        <r>  0.0016  0.0162  0.0001  0.0088  0.0002  0.0000  0.0000  0.0000  0.0000 </r>
        <r>  0.0000  0.0119  0.0012  0.0201  0.0000  0.0000  0.0000  0.0000  0.0000 </r>
        <r>  0.0001  0.0027  0.0012  0.0893  0.0000  0.0000  0.0000  0.0000  0.0000 </r>
        <r>  0.0002  0.0120  0.0003  0.0894  0.0000  0.0000  0.0000  0.0000  0.0000 </r>
       </set>
       <set comment="band 16">
        <r>  0.0006  0.0071  0.0025  0.0087  0.0001  0.0000  0.0000  0.0001  0.0000 </r>
        <r>  0.0000  0.0002  0.0001  0.0000  0.0001  0.0000  0.0000  0.0000  0.0000 </r>
        <r>  0.0001  0.0070  0.0337  0.0006  0.0001  0.0000  0.0000  0.0001  0.0000 </r>
        <r>  0.0003  0.0972  0.0024  0.0006  0.0001  0.0000  0.0000  0.0000  0.0000 </r>
        <r>  0.0001  0.0718  0.0249  0.0014  0.0000  0.0000  0.0000  0.0000  0.0000 </r>
        <r>  0.0000  0.0161  0.0249  0.0065  0.0000  0.0000  0.0000  0.0000  0.0000 </r>
        <r>  0.0000  0.0717  0.0056  0.0064  0.0000  0.0000  0.0000  0.0000  0.0000 </r>
       </set>
       <set comment="band 17">
        <r>  0.0000  0.0019  0.0076  0.0095  0.0000  0.0000  0.0000  0.0001  0.0000 </r>
        <r>  0.0000  0.0001  0.0003  0.0000  0.0000  0.0000  0.0000  0.0001  0.0000 </r>
        <r>  0.0000  0.0019  0.1045  0.0007  0.0000  0.0000  0.0000  0.0001  0.0000 </r>
        <r>  0.0000  0.0261  0.0075  0.0007  0.0000  0.0000  0.0000  0.0001  0.0000 </r>
        <r>  0.0000  0.0193  0.0771  0.0016  0.0000  0.0000  0.0000  0.0000  0.0000 </r>
        <r>  0.0000  0.0043  0.0771  0.0071  0.0000  0.0000  0.0000  0.0000  0.0000 </r>
        <r>  0.0000  0.0193  0.0173  0.0071  0.0000  0.0000  0.0000  0.0000  0.0000 </r>
       </set>
       <set comment="band 18">
        <r>  0.0000  0.0000  0.0000  0.0000  0.0014  0.0359  0.0000  0.0079  0.0000 </r>
        <r>  0.0000  0.0000  0.0000  0.0000  0.0015  0.0358  0.0000  0.0084  0.0000 </r>
        <r>  0.0000  0.0000  0.0000  0.0000  0.0015  0.0337  0.0000  0.0079  0.0000 </r>
        <r>  0.0000  0.0000  0.0000  0.0000  0.0014  0.0337  0.0000  0.0084  0.0000 </r>
        <r>  0.0000  0.0000  0.0000  0.0000  0.0000  0.0000  0.0000  0.0000  0.0000 </r>
        <r>  0.0000  0.0000  0.0000  0.0000  0.0000  0.0000  0.0000  0.0000  0.0000 </r>
        <r>  0.0000  0.0000  0.0000  0.0000  0.0000  0.0000  0.0000  0.0000  0.0000 </r>
       </set>
       <set comment="band 19">
        <r>  0.0000  0.0000  0.0000  0.0000  0.0013  0.0096  0.0000  0.0325  0.0000 </r>
        <r>  0.0000  0.0000  0.0000  0.0000  0.0014  0.0095  0.0000  0.0346  0.0000 </r>
        <r>  0.0000  0.0000  0.0004  0.0000  0.0014  0.0090  0.0000  0.0325  0.0000 </r>
        <r>  0.0000  0.0000  0.0001  0.0000  0.0013  0.0089  0.0000  0.0347  0.0000 </r>
        <r>  0.0000  0.0000  0.0005  0.0000  0.0000  0.0000  0.0000  0.0000  0.0000 </r>
        <r>  0.0000  0.0000  0.0005  0.0000  0.0000  0.0000  0.0000  0.0000  0.0000 </r>
        <r>  0.0000  0.0000  0.0000  0.0000  0.0000  0.0000  0.0000  0.0000  0.0000 </r>
       </set>
       <set comment="band 20">
        <r>  0.0000  0.0000  0.0000  0.0002  0.0400  0.0003  0.0000  0.0024  0.0000 </r>
        <r>  0.0000  0.0000  0.0000  0.0000  0.0426  0.0003  0.0000  0.0025  0.0000 </r>
        <r>  0.0000  0.0001  0.0000  0.0000  0.0427  0.0003  0.0000  0.0024  0.0000 </r>
        <r>  0.0000  0.0005  0.0000  0.0000  0.0400  0.0003  0.0000  0.0025  0.0000 </r>
        <r>  0.0000  0.0006  0.0000  0.0000  0.0000  0.0000  0.0000  0.0000  0.0000 </r>
        <r>  0.0000  0.0001  0.0000  0.0002  0.0000  0.0000  0.0000  0.0000  0.0000 </r>
        <r>  0.0000  0.0006  0.0000  0.0002  0.0000  0.0000  0.0000  0.0000  0.0000 </r>
       </set>
       <set comment="band 21">
        <r>  0.2969  0.0000  0.0000  0.0000  0.0000  0.0000  0.0003  0.0000  0.0003 </r>
        <r>  0.0000  0.0000  0.0000  0.0000  0.0000  0.0000  0.0002  0.0000  0.0011 </r>
        <r>  0.0391  0.0000  0.0001  0.0000  0.0000  0.0000  0.0001  0.0000  0.0010 </r>
        <r>  0.1205  0.0002  0.0000  0.0000  0.0000  0.0000  0.0009  0.0000  0.0000 </r>
        <r>  0.0357  0.0001  0.0000  0.0000  0.0000  0.0000  0.0000  0.0000  0.0000 </r>
        <r>  0.0145  0.0000  0.0001  0.0000  0.0000  0.0000  0.0000  0.0000  0.0000 </r>
        <r>  0.0047  0.0002  0.0000  0.0000  0.0000  0.0000  0.0000  0.0000  0.0000 </r>
       </set>
       <set comment="band 22">
        <r>  0.0074  0.0000  0.0000  0.0013  0.0000  0.0000  0.0007  0.0000  0.0004 </r>
        <r>  0.0000  0.0000  0.0000  0.0000  0.0000  0.0000  0.0011  0.0000  0.0002 </r>
        <r>  0.2635  0.0000  0.0000  0.0000  0.0000  0.0000  0.0005  0.0000  0.0001 </r>
        <r>  0.1826  0.0001  0.0000  0.0001  0.0000  0.0000  0.0001  0.0000  0.0007 </r>
        <r>  0.0009  0.0001  0.0000  0.0001  0.0000  0.0000  0.0000  0.0000  0.0000 </r>
        <r>  0.0220  0.0000  0.0000  0.0007  0.0000  0.0000  0.0000  0.0000  0.0000 </r>
        <r>  0.0318  0.0000  0.0000  0.0006  0.0000  0.0000  0.0000  0.0000  0.0000 </r>
       </set>
       <set comment="band 23">
        <r>  0.0491  0.0000  0.0000  0.0000  0.0000  0.0000  0.0081  0.0000  0.0244 </r>
        <r>  0.1176  0.0000  0.0000  0.0000  0.0000  0.0000  0.0000  0.0000  0.0000 </r>
        <r>  0.0491  0.0000  0.0000  0.0001  0.0000  0.0000  0.0326  0.0000  0.0000 </r>
        <r>  0.0491  0.0000  0.0000  0.0001  0.0000  0.0000  0.0081  0.0000  0.0245 </r>
        <r>  0.0088  0.0000  0.0000  0.0000  0.0000  0.0000  0.0000  0.0000  0.0000 </r>
        <r>  0.0089  0.0000  0.0000  0.0001  0.0000  0.0000  0.0000  0.0000  0.0000 </r>
        <r>  0.0089  0.0000  0.0000  0.0001  0.0000  0.0000  0.0000  0.0000  0.0000 </r>
       </set>
       <set comment="band 24">
        <r>  0.0000  0.0002  0.0013  0.0000  0.0057  0.0175  0.0000  0.0502  0.0000 </r>
        <r>  0.0000  0.0012  0.0084  0.0000  0.0051  0.0167  0.0000  0.0444  0.0000 </r>
        <r>  0.0000  0.0001  0.0046  0.0000  0.0053  0.0190  0.0000  0.0504  0.0000 </r>
        <r>  0.0000  0.0006  0.0008  0.0000  0.0058  0.0190  0.0000  0.0463  0.0000 </r>
        <r>  0.0000  0.0002  0.0016  0.0000  0.0000  0.0000  0.0000  0.0000  0.0000 </r>
        <r>  0.0000  0.0016  0.0021  0.0000  0.0000  0.0000  0.0000  0.0000  0.0000 </r>
        <r>  0.0000  0.0003  0.0116  0.0000  0.0000  0.0000  0.0000  0.0000  0.0000 </r>
       </set>
       <set comment="band 25">
        <r>  0.0000  0.0012  0.0001  0.0013  0.0657  0.0002  0.0000  0.0093  0.0000 </r>
        <r>  0.0000  0.0059  0.0007  0.0024  0.0581  0.0002  0.0000  0.0082  0.0000 </r>
        <r>  0.0000  0.0004  0.0004  0.0002  0.0606  0.0003  0.0000  0.0093  0.0000 </r>
        <r>  0.0000  0.0032  0.0000  0.0004  0.0658  0.0003  0.0000  0.0086  0.0000 </r>
        <r>  0.0000  0.0009  0.0001  0.0034  0.0000  0.0000  0.0000  0.0000  0.0000 </r>
        <r>  0.0000  0.0082  0.0002  0.0004  0.0000  0.0000  0.0000  0.0000  0.0000 </r>
        <r>  0.0000  0.0018  0.0010  0.0006  0.0000  0.0000  0.0000  0.0000  0.0000 </r>
       </set>
       <set comment="band 26">
        <r>  0.0000  0.0000  0.0000  0.0000  0.0042  0.0554  0.0000  0.0166  0.0000 </r>
        <r>  0.0000  0.0000  0.0000  0.0000  0.0037  0.0532  0.0000  0.0148  0.0000 </r>
        <r>  0.0000  0.0000  0.0000  0.0000  0.0039  0.0598  0.0000  0.0166  0.0000 </r>
        <r>  0.0000  0.0000  0.0001  0.0000  0.0042  0.0598  0.0000  0.0154  0.0000 </r>
        <r>  0.0000  0.0000  0.0000  0.0000  0.0000  0.0000  0.0000  0.0000  0.0000 </r>
        <r>  0.0000  0.0000  0.0000  0.0000  0.0000  0.0000  0.0000  0.0000  0.0000 </r>
        <r>  0.0000  0.0000  0.0000  0.0000  0.0000  0.0000  0.0000  0.0000  0.0000 </r>
       </set>
       <set comment="band 27">
        <r>  0.0000  0.0037  0.0009  0.0516  0.0000  0.0000  0.0000  0.0000  0.0000 </r>
        <r>  0.0000  0.0307  0.0074  0.0971  0.0000  0.0000  0.0000  0.0000  0.0000 </r>
        <r>  0.0000  0.0038  0.0039  0.0118  0.0000  0.0000  0.0000  0.0000  0.0000 </r>
        <r>  0.0000  0.0163  0.0009  0.0119  0.0000  0.0000  0.0000  0.0000  0.0000 </r>
        <r>  0.0000  0.0077  0.0018  0.1417  0.0000  0.0000  0.0000  0.0000  0.0000 </r>
        <r>  0.0000  0.0449  0.0018  0.0242  0.0000  0.0000  0.0000  0.0000  0.0000 </r>
        <r>  0.0000  0.0076  0.0108  0.0242  0.0000  0.0000  0.0000  0.0000  0.0000 </r>
       </set>
       <set comment="band 28">
        <r>  0.0000  0.0102  0.0005  0.0182  0.0048  0.0001  0.0000  0.0004  0.0000 </r>
        <r>  0.0000  0.0872  0.0046  0.0343  0.0047  0.0001  0.0000  0.0004  0.0000 </r>
        <r>  0.0000  0.0111  0.0024  0.0043  0.0047  0.0001  0.0000  0.0004  0.0000 </r>
        <r>  0.0000  0.0464  0.0006  0.0041  0.0047  0.0001  0.0000  0.0004  0.0000 </r>
        <r>  0.0000  0.0225  0.0012  0.0503  0.0000  0.0000  0.0000  0.0000  0.0000 </r>
        <r>  0.0000  0.1279  0.0011  0.0088  0.0000  0.0000  0.0000  0.0000  0.0000 </r>
        <r>  0.0000  0.0214  0.0067  0.0085  0.0000  0.0000  0.0000  0.0000  0.0000 </r>
       </set>
       <set comment="band 29">
        <r>  0.0000  0.0012  0.0137  0.0007  0.0002  0.0015  0.0000  0.0040  0.0000 </r>
        <r>  0.0000  0.0101  0.1141  0.0014  0.0002  0.0015  0.0000  0.0038  0.0000 </r>
        <r>  0.0000  0.0013  0.0606  0.0001  0.0002  0.0014  0.0000  0.0038  0.0000 </r>
        <r>  0.0000  0.0054  0.0142  0.0002  0.0002  0.0015  0.0000  0.0038  0.0000 </r>
        <r>  0.0000  0.0026  0.0290  0.0020  0.0000  0.0000  0.0000  0.0000  0.0000 </r>
        <r>  0.0000  0.0148  0.0284  0.0003  0.0000  0.0000  0.0000  0.0000  0.0000 </r>
        <r>  0.0000  0.0025  0.1673  0.0004  0.0000  0.0000  0.0000  0.0000  0.0000 </r>
       </set>
       <set comment="band 30">
        <r>  0.0000  0.0486  0.0059  0.0000  0.0000  0.0000  0.0000  0.0000  0.0002 </r>
        <r>  0.0000  0.0000  0.0000  0.0000  0.0000  0.0000  0.0000  0.0000  0.0000 </r>
        <r>  0.0000  0.0487  0.0000  0.1025  0.0000  0.0000  0.0000  0.0000  0.0004 </r>
        <r>  0.0000  0.0000  0.0060  0.1024  0.0000  0.0000  0.0001  0.0000  0.0001 </r>
        <r>  0.0000  0.0383  0.0047  0.0000  0.0000  0.0000  0.0000  0.0000  0.0000 </r>
        <r>  0.0000  0.0000  0.0047  0.0806  0.0000  0.0000  0.0000  0.0000  0.0000 </r>
        <r>  0.0000  0.0383  0.0000  0.0806  0.0000  0.0000  0.0000  0.0000  0.0000 </r>
       </set>
       <set comment="band 31">
        <r>  0.0000  0.0387  0.1157  0.0000  0.0000  0.0000  0.0001  0.0000  0.0000 </r>
        <r>  0.0000  0.0000  0.0000  0.0000  0.0000  0.0000  0.0000  0.0000  0.0000 </r>
        <r>  0.0000  0.0386  0.0000  0.0028  0.0000  0.0000  0.0000  0.0000  0.0000 </r>
        <r>  0.0000  0.0000  0.1157  0.0029  0.0000  0.0000  0.0001  0.0000  0.0000 </r>
        <r>  0.0000  0.0304  0.0910  0.0000  0.0000  0.0000  0.0000  0.0000  0.0000 </r>
        <r>  0.0000  0.0000  0.0911  0.0022  0.0000  0.0000  0.0000  0.0000  0.0000 </r>
        <r>  0.0000  0.0304  0.0000  0.0023  0.0000  0.0000  0.0000  0.0000  0.0000 </r>
       </set>
       <set comment="band 32">
        <r>  0.0001  0.0699  0.0356  0.0000  0.0001  0.0000  0.0000  0.0000  0.0000 </r>
        <r>  0.0000  0.0000  0.0000  0.0000  0.0000  0.0000  0.0000  0.0000  0.0000 </r>
        <r>  0.0000  0.0699  0.0000  0.0516  0.0000  0.0000  0.0000  0.0000  0.0000 </r>
        <r>  0.0000  0.0000  0.0356  0.0517  0.0001  0.0000  0.0001  0.0000  0.0000 </r>
        <r>  0.0001  0.0549  0.0280  0.0000  0.0000  0.0000  0.0000  0.0000  0.0000 </r>
        <r>  0.0000  0.0000  0.0280  0.0406  0.0000  0.0000  0.0000  0.0000  0.0000 </r>
        <r>  0.0000  0.0550  0.0000  0.0406  0.0000  0.0000  0.0000  0.0000  0.0000 </r>
       </set>
       <set comment="band 33">
        <r>  0.0000  0.0000  0.0000  0.0000  0.0000  0.0000  0.0000  0.0000  0.0000 </r>
        <r>  0.0000  0.0000  0.0000  0.0000  0.0000  0.0000  0.0000  0.0000  0.0000 </r>
        <r>  0.0000  0.0000  0.0000  0.0000  0.0000  0.0000  0.0000  0.0000  0.0000 </r>
        <r>  0.0000  0.0000  0.0000  0.0000  0.0000  0.0000  0.0000  0.0000  0.0000 </r>
        <r>  0.0000  0.0000  0.0000  0.0000  0.0000  0.0000  0.0000  0.0000  0.0000 </r>
        <r>  0.0000  0.0000  0.0000  0.0000  0.0000  0.0000  0.0000  0.0000  0.0000 </r>
        <r>  0.0000  0.0000  0.0000  0.0000  0.0000  0.0000  0.0000  0.0000  0.0000 </r>
       </set>
       <set comment="band 34">
        <r>  0.0000  0.0000  0.0000  0.0000  0.0000  0.0000  0.1357  0.0000  0.0308 </r>
        <r>  0.0000  0.0000  0.0000  0.0000  0.0000  0.0000  0.1195  0.0000  0.0233 </r>
        <r>  0.0000  0.0001  0.0000  0.0000  0.0000  0.0000  0.0748  0.0000  0.0273 </r>
        <r>  0.0000  0.0000  0.0000  0.0000  0.0000  0.0000  0.1088  0.0000  0.0078 </r>
        <r>  0.0000  0.0000  0.0000  0.0000  0.0000  0.0000  0.0000  0.0000  0.0000 </r>
        <r>  0.0005  0.0000  0.0000  0.0000  0.0000  0.0000  0.0000  0.0000  0.0000 </r>
        <r>  0.0007  0.0000  0.0000  0.0000  0.0000  0.0000  0.0000  0.0000  0.0000 </r>
       </set>
       <set comment="band 35">
        <r>  0.0000  0.0000  0.0000  0.0000  0.0000  0.0000  0.0122  0.0000  0.0780 </r>
        <r>  0.0000  0.0000  0.0000  0.0000  0.0000  0.0000  0.0233  0.0000  0.1197 </r>
        <r>  0.0000  0.0000  0.0000  0.0002  0.0000  0.0000  0.0146  0.0000  0.1397 </r>
        <r>  0.0000  0.0000  0.0000  0.0003  0.0000  0.0000  0.0389  0.0000  0.1010 </r>
        <r>  0.0008  0.0000  0.0000  0.0000  0.0000  0.0000  0.0000  0.0000  0.0000 </r>
        <r>  0.0003  0.0000  0.0000  0.0002  0.0000  0.0000  0.0000  0.0000  0.0000 </r>
        <r>  0.0001  0.0000  0.0000  0.0002  0.0000  0.0000  0.0000  0.0000  0.0000 </r>
       </set>
       <set comment="band 36">
        <r>  0.0000  0.0090  0.1128  0.0146  0.0000  0.0000  0.0000  0.0000  0.0000 </r>
        <r>  0.0000  0.0119  0.1509  0.0350  0.0000  0.0000  0.0000  0.0000  0.0001 </r>
        <r>  0.0000  0.0089  0.0630  0.0262  0.0000  0.0000  0.0000  0.0000  0.0001 </r>
        <r>  0.0000  0.0050  0.1129  0.0262  0.0000  0.0000  0.0000  0.0000  0.0000 </r>
        <r>  0.0000  0.0010  0.0126  0.0041  0.0000  0.0000  0.0000  0.0000  0.0000 </r>
        <r>  0.0000  0.0014  0.0126  0.0029  0.0000  0.0000  0.0000  0.0000  0.0000 </r>
        <r>  0.0000  0.0010  0.0177  0.0029  0.0000  0.0000  0.0000  0.0000  0.0000 </r>
       </set>
      </set>
     </set>
    </set>
   </array>
  </projected>
 </calculation>
 <structure name="finalpos" >
  <crystal>
   <varray name="basis" >
    <v>       4.24689400       0.00000000       0.00000000 </v>
    <v>       0.00000000       4.24689400       0.00000000 </v>
    <v>       0.00000000       0.00000000       4.24689400 </v>
   </varray>
   <i name="volume">     76.59744160 </i>
   <varray name="rec_basis" >
    <v>       0.23546620       0.00000000       0.00000000 </v>
    <v>       0.00000000       0.23546620       0.00000000 </v>
    <v>       0.00000000       0.00000000       0.23546620 </v>
   </varray>
  </crystal>
  <varray name="positions" >
   <v>       0.00518962       0.98350779       0.99451375 </v>
   <v>       0.00472830       0.48279400       0.49429298 </v>
   <v>       0.50403495       0.98214992       0.49449418 </v>
   <v>       0.50589454       0.48282060       0.99404203 </v>
   <v>       0.50456138       0.48111031       0.49338778 </v>
   <v>       0.00137968       0.98293791       0.49533603 </v>
   <v>       0.00834653       0.48487145       0.99411226 </v>
  </varray>
 </structure>
</modeling>
